/*--------------------------------*- C++ -*----------------------------------*\
  =========                 |
  \\      /  F ield         | OpenFOAM: The Open Source CFD Toolbox
   \\    /   O peration     | Website:  https://openfoam.org
    \\  /    A nd           | Version:  8
     \\/     M anipulation  |
\*---------------------------------------------------------------------------*/
FoamFile
{
    version     2.0;
    format      ascii;
    class       pointVectorField;
    location    "0.199992";
    object      pointDisplacement;
}
// * * * * * * * * * * * * * * * * * * * * * * * * * * * * * * * * * * * * * //

dimensions      [0 1 0 0 0 0 0];

internalField   nonuniform List<vector> 
40800
(
(-0.0021293897 0 -0.0017120781)
(-0.0021236936 0 -0.0014157978)
(-0.0021234243 0 -0.0014175051)
(-0.0021291971 0 -0.001720218)
(-0.0021233959 0 -0.0014178753)
(-0.0021291722 0 -0.0017208333)
(-0.0021233367 0 -0.0014184467)
(-0.0021291155 0 -0.0017215472)
(-0.0021232309 0 -0.0014191666)
(-0.0021290136 0 -0.0017224364)
(-0.0021230585 0 -0.0014200763)
(-0.0021288468 0 -0.0017235449)
(-0.0021227919 0 -0.0014212318)
(-0.0021285881 0 -0.0017249337)
(-0.0021223933 0 -0.0014227073)
(-0.0021282003 0 -0.0017266843)
(-0.0021218109 0 -0.0014246032)
(-0.0021276326 0 -0.0017289051)
(-0.0021209746 0 -0.0014270552)
(-0.0021268161 0 -0.0017317416)
(-0.0021197902 0 -0.001430249)
(-0.0021256581 0 -0.0017353902)
(-0.0021181315 0 -0.0014344391)
(-0.0021240344 0 -0.0017401164)
(-0.0021158313 0 -0.0014399755)
(-0.0021217802 0 -0.0017462811)
(-0.0021126694 0 -0.0014473407)
(-0.0021186785 0 -0.0017543753)
(-0.0021083595 0 -0.0014571985)
(-0.0021144465 0 -0.0017650669)
(-0.0021025324 0 -0.0014704596)
(-0.0021087195 0 -0.0017792649)
(-0.0020947205 0 -0.0014883687)
(-0.0021010341 0 -0.001798203)
(-0.0020843403 0 -0.0015126062)
(-0.0020908114 0 -0.0018235366)
(-0.0020706803 0 -0.0015454333)
(-0.0020773432 0 -0.0018574853)
(-0.002052895 0 -0.0015898612)
(-0.0020597852 0 -0.0019029925)
(-0.0020300154 0 -0.0016498157)
(-0.0020371647 0 -0.0019638792)
(-0.0020009838 0 -0.0017302861)
(-0.0020084128 0 -0.0020449904)
(-0.0019647202 0 -0.0018373884)
(-0.0019724278 0 -0.0021522534)
(-0.0019202277 0 -0.0019782488)
(-0.0019281778 0 -0.0022925645)
(-0.0018667304 0 -0.0021605885)
(-0.0018748383 0 -0.0024733847)
(-0.0018038242 0 -0.0023919056)
(-0.0018119468 0 -0.0027019487)
(-0.0017316147 0 -0.0026781873)
(-0.0017395514 0 -0.002983996)
(-0.0016508046 0 -0.0030221239)
(-0.001658311 0 -0.0033220021)
(-0.0015626945 0 -0.0034213569)
(-0.0015695168 0 -0.0037133966)
(-0.0014690395 0 -0.0038676586)
(-0.0014749571 0 -0.0041497371)
(-0.0013718855 0 -0.0043465706)
(-0.0013767493 0 -0.004616384)
(-0.0012734293 0 -0.0048382126)
(-0.0012771898 0 -0.0050933594)
(-0.0011758021 0 -0.0053196093)
(-0.0011785106 0 -0.0055577537)
(-0.0010809001 0 -0.0057677453)
(-0.0010826894 0 -0.0059868622)
(-0.00099025206 0 -0.0061624436)
(-0.00099130249 0 -0.0063610568)
(-0.00090483536 0 -0.0064888052)
(-0.00090532875 0 -0.0066662066)
(-0.00082511986 0 -0.0067375559)
(-0.00082521454 0 -0.0068937969)
(-0.00075118131 0 -0.0069042499)
(-0.00075100374 0 -0.007040097)
(-0.00068274442 0 -0.0069872774)
(-0.00068238747 0 -0.0071038522)
(-0.00061925503 0 -0.0069867385)
(-0.00061877284 0 -0.0070854566)
(-0.00055996391 0 -0.0069037714)
(-0.00055938143 0 -0.0069861215)
(-0.00050427685 0 -0.0067389468)
(-0.00050362887 0 -0.0068065276)
(-0.00045144597 0 -0.0064916433)
(-0.00045075394 0 -0.0065460552)
(-0.00040043579 0 -0.0061555064)
(-0.00039970591 0 -0.0061980587)
(-0.00034992455 0 -0.0057182051)
(-0.00034911557 0 -0.0057496724)
(-0.00029935102 0 -0.005170423)
(-0.00029852039 0 -0.0051922736)
(-0.00024749584 0 -0.0044930385)
(-0.00024662858 0 -0.0045060296)
(-0.00019296418 0 -0.0036646191)
(-0.00019213137 0 -0.0036705347)
(-0.00013463883 0 -0.0026611179)
(-0.00013393285 0 -0.0026622031)
(-6.8774489e-05 0 -0.0014197985)
(-6.8197568e-05 0 -0.0014171188)
(0 0 0)
(0 0 0)
(-0.0021169822 0 -0.0011259158)
(-0.0021167185 0 -0.0011275796)
(-0.0021166878 0 -0.001127825)
(-0.0021166234 0 -0.0011281375)
(-0.0021165107 0 -0.0011285456)
(-0.0021163294 0 -0.0011290844)
(-0.0021160512 0 -0.001129801)
(-0.0021156376 0 -0.00113076)
(-0.0021150356 0 -0.0011320507)
(-0.002114174 0 -0.0011337964)
(-0.0021129568 0 -0.0011361687)
(-0.0021112557 0 -0.0011394057)
(-0.0021089011 0 -0.0011438389)
(-0.0021056697 0 -0.0011499306)
(-0.0021012716 0 -0.0011583236)
(-0.0020953336 0 -0.0011699103)
(-0.0020873838 0 -0.0011859181)
(-0.0020768345 0 -0.0012080255)
(-0.0020629708 0 -0.0012385078)
(-0.0020449463 0 -0.001280411)
(-0.0020217955 0 -0.0013377343)
(-0.0019924716 0 -0.0014155828)
(-0.001955916 0 -0.00152024)
(-0.001911166 0 -0.0016590552)
(-0.0018574926 0 -0.0018400246)
(-0.0017945502 0 -0.0020709511)
(-0.001722502 0 -0.0023581418)
(-0.0016420955 0 -0.0027046099)
(-0.0015546435 0 -0.0031083572)
(-0.0014618724 0 -0.0035615219)
(-0.0013657651 0 -0.0040499541)
(-0.0012684253 0 -0.0045539871)
(-0.0011718874 0 -0.0050506654)
(-0.0010779664 0 -0.0055167305)
(-0.00098813878 0 -0.0059314915)
(-0.00090337166 0 -0.0062792989)
(-0.00082415258 0 -0.0065500552)
(-0.00075058196 0 -0.0067385377)
(-0.00068241597 0 -0.0068426184)
(-0.00061913539 0 -0.00686205)
(-0.00056002305 0 -0.0067977231)
(-0.00050447843 0 -0.0066500682)
(-0.00045175683 0 -0.0064183023)
(-0.00040084821 0 -0.0060963422)
(-0.0003504694 0 -0.005672364)
(-0.00029999371 0 -0.0051365841)
(-0.00024821088 0 -0.0044701495)
(-0.00019371748 0 -0.0036512737)
(-0.00013529436 0 -0.0026547873)
(-6.9350205e-05 0 -0.0014197972)
(0 0 0)
(-0.0021092781 0 -0.00084229906)
(-0.0021090206 0 -0.00084385025)
(-0.0021089848 0 -0.00084390503)
(-0.0021089137 0 -0.00084398937)
(-0.0021087923 0 -0.00084412307)
(-0.0021085996 0 -0.00084433072)
(-0.0021083069 0 -0.00084464859)
(-0.0021078743 0 -0.00084512961)
(-0.0021072481 0 -0.00084584974)
(-0.0021063554 0 -0.00084691798)
(-0.0021050984 0 -0.00084849036)
(-0.0021033467 0 -0.00085078846)
(-0.0021009276 0 -0.00085412713)
(-0.0020976148 0 -0.00085895061)
(-0.0020931141 0 -0.0008658849)
(-0.0020870482 0 -0.00087580523)
(-0.0020789402 0 -0.00088992843)
(-0.0020681981 0 -0.00090993138)
(-0.0020541036 0 -0.00093810407)
(-0.0020358094 0 -0.00097753394)
(-0.0020123544 0 -0.0010322937)
(-0.001982704 0 -0.0011076071)
(-0.0019458233 0 -0.0012099272)
(-0.001900787 0 -0.0013468234)
(-0.0018469175 0 -0.0015265554)
(-0.0017839314 0 -0.0017572084)
(-0.0017120534 0 -0.0020453738)
(-0.0016320779 0 -0.0023943436)
(-0.0015453306 0 -0.0028024317)
(-0.0014535084 0 -0.0032621015)
(-0.0013585287 0 -0.0037594871)
(-0.0012623991 0 -0.0042751426)
(-0.0011670531 0 -0.0047861724)
(-0.00107422 0 -0.0052691442)
(-0.00098531936 0 -0.005702936)
(-0.00090130245 0 -0.0060712267)
(-0.00082267017 0 -0.0063631549)
(-0.00074954671 0 -0.0065727509)
(-0.00068171928 0 -0.0066973606)
(-0.00061870365 0 -0.0067363722)
(-0.00055981522 0 -0.0066904129)
(-0.00050445192 0 -0.006559751)
(-0.00045187404 0 -0.0063434404)
(-0.00040109582 0 -0.0060356231)
(-0.00035087047 0 -0.0056249327)
(-0.00030051462 0 -0.0051011896)
(-0.00024882463 0 -0.004445769)
(-0.00019438867 0 -0.0036365776)
(-0.00013589519 0 -0.0026474322)
(-6.9884905e-05 0 -0.0014190698)
(0 0 0)
(-0.002100615 0 -0.00056481719)
(-0.0021003617 0 -0.00056623932)
(-0.0021003184 0 -0.00056608767)
(-0.0021002378 0 -0.00056592833)
(-0.0021001047 0 -0.00056577584)
(-0.0020998975 0 -0.00056564689)
(-0.0020995865 0 -0.00056556776)
(-0.002099131 0 -0.00056557942)
(-0.0020984757 0 -0.00056574404)
(-0.0020975463 0 -0.00056615545)
(-0.0020962427 0 -0.00056695223)
(-0.0020944321 0 -0.0005683381)
(-0.0020919386 0 -0.00057060868)
(-0.0020885322 0 -0.00057418948)
(-0.0020839143 0 -0.00057968871)
(-0.0020777028 0 -0.00058796735)
(-0.0020694158 0 -0.00060023286)
(-0.0020584565 0 -0.0006181639)
(-0.0020441029 0 -0.00064407076)
(-0.0020255074 0 -0.00068108427)
(-0.002001714 0 -0.0007333559)
(-0.001971702 0 -0.00080623293)
(-0.0019344624 0 -0.00090634004)
(-0.001889111 0 -0.0010414649)
(-0.0018350257 0 -0.0012201184)
(-0.0017719896 0 -0.001450645)
(-0.0017002924 0 -0.0017398851)
(-0.0016207774 0 -0.0020913621)
(-0.0015347828 0 -0.0025036556)
(-0.0014439746 0 -0.0029695131)
(-0.0013502019 0 -0.0034753282)
(-0.0012553734 0 -0.0040018799)
(-0.0011613178 0 -0.0045263697)
(-0.0010696747 0 -0.0050252557)
(-0.00098180284 0 -0.0054770627)
(-0.00089863286 0 -0.0058648759)
(-0.000820675 0 -0.0061771291)
(-0.00074807595 0 -0.0064071399)
(-0.00068065358 0 -0.006551726)
(-0.00061795853 0 -0.0066098969)
(-0.00055933919 0 -0.0065820024)
(-0.00050419605 0 -0.0064681288)
(-0.0004517963 0 -0.0062671641)
(-0.00040117744 0 -0.0059734332)
(-0.00035112713 0 -0.0055759812)
(-0.00030091317 0 -0.0050642931)
(-0.00024933662 0 -0.0044199388)
(-0.00019497758 0 -0.0036205621)
(-0.00013644055 0 -0.0026390648)
(-7.0378969e-05 0 -0.0014176303)
(0 0 0)
(-0.0020910247 0 -0.00029334195)
(-0.0020907733 0 -0.00029464291)
(-0.002090721 0 -0.00029429194)
(-0.0020906292 0 -0.00029389522)
(-0.0020904821 0 -0.00029346023)
(-0.0020902573 0 -0.00029299552)
(-0.0020899242 0 -0.00029251814)
(-0.0020894411 0 -0.00029205837)
(-0.0020887512 0 -0.00029166614)
(-0.0020877783 0 -0.00029142123)
(-0.0020864203 0 -0.00029144646)
(-0.0020845414 0 -0.000291928)
(-0.0020819626 0 -0.00029314274)
(-0.0020784496 0 -0.0002954972)
(-0.0020736991 0 -0.00029958143)
(-0.0020673238 0 -0.00030624154)
(-0.0020588361 0 -0.00031667726)
(-0.0020476343 0 -0.00033257137)
(-0.0020329928 0 -0.00035625635)
(-0.0020140638 0 -0.00039091198)
(-0.0019898975 0 -0.00044077505)
(-0.0019594887 0 -0.00051132245)
(-0.0019218572 0 -0.00060935365)
(-0.001876163 0 -0.00074287178)
(-0.0018218442 0 -0.00092062678)
(-0.0017587542 0 -0.0011511993)
(-0.0016872511 0 -0.0014416413)
(-0.0016082283 0 -0.0017956625)
(-0.0015230354 0 -0.0022120613)
(-0.0014333058 0 -0.0026838288)
(-0.0013408171 0 -0.0031975934)
(-0.0012473762 0 -0.0037343616)
(-0.0011547041 0 -0.0042714634)
(-0.0010643474 0 -0.0047853053)
(-0.0009776006 0 -0.005254134)
(-0.00089536959 0 -0.0056605155)
(-0.00081817036 0 -0.005992239)
(-0.00074617062 0 -0.0062419464)
(-0.00067921833 0 -0.0064059301)
(-0.0006168988 0 -0.006482811)
(-0.00055859357 0 -0.0064726495)
(-0.00050370936 0 -0.006375332)
(-0.00045152198 0 -0.0061895766)
(-0.00040109157 0 -0.0059098538)
(-0.00035123837 0 -0.0055255753)
(-0.00030118849 0 -0.0050259444)
(-0.00024974618 0 -0.004392698)
(-0.0001954838 0 -0.0036032548)
(-0.00013692949 0 -0.0026296948)
(-7.0832756e-05 0 -0.0014154928)
(0 0 0)
(-0.0020805307 0 -2.7748705e-05)
(-0.0020802812 0 -2.8930561e-05)
(-0.0020802183 0 -2.838219e-05)
(-0.0020801132 0 -2.7750374e-05)
(-0.0020799496 0 -2.7035309e-05)
(-0.0020797042 0 -2.6237304e-05)
(-0.0020793456 0 -2.5364025e-05)
(-0.0020788305 0 -2.443514e-05)
(-0.0020781008 0 -2.3488608e-05)
(-0.0020770782 0 -2.259044e-05)
(-0.0020756581 0 -2.1848243e-05)
(-0.0020737018 0 -2.1431421e-05)
(-0.0020710265 0 -2.1598937e-05)
(-0.0020673936 0 -2.2738914e-05)
(-0.0020624947 0 -2.5423881e-05)
(-0.0020559365 0 -3.0485584e-05)
(-0.0020472258 0 -3.9116714e-05)
(-0.0020357554 0 -5.3006127e-05)
(-0.0020207963 0 -7.4512225e-05)
(-0.0020015011 0 -0.00010686952)
(-0.0019769272 0 -0.00015440804)
(-0.0019460869 0 -0.00022274152)
(-0.0019080312 0 -0.00031884692)
(-0.0018619684 0 -0.0004509398)
(-0.0018074008 0 -0.00062799658)
(-0.0017442558 0 -0.00085881029)
(-0.0016729631 0 -0.0011506063)
(-0.0015944666 0 -0.001507236)
(-0.0015101258 0 -0.0019276716)
(-0.0014215391 0 -0.0024051069)
(-0.0013304092 0 -0.0029263814)
(-0.0012384385 0 -0.0034727293)
(-0.0011472374 0 -0.0040216366)
(-0.0010582575 0 -0.0045495118)
(-0.00097272641 0 -0.0050343925)
(-0.00089152155 0 -0.0054583983)
(-0.00081516148 0 -0.0058087333)
(-0.00074383327 0 -0.0060774036)
(-0.00067741427 0 -0.0062601837)
(-0.00061552414 0 -0.0063552995)
(-0.00055757763 0 -0.006362512)
(-0.00050299088 0 -0.0062814922)
(-0.00045104991 0 -0.006110783)
(-0.00040083699 0 -0.0058449673)
(-0.00035120338 0 -0.005473782)
(-0.00030133982 0 -0.0049861943)
(-0.00025005267 0 -0.0043640857)
(-0.00019590691 0 -0.0035846842)
(-0.00013736134 0 -0.002619336)
(-7.1246566e-05 0 -0.0014126709)
(0 0 0)
(-0.0020691603 0 0.00023208406)
(-0.0020689123 0 0.00023102294)
(-0.002068837 0 0.00023177101)
(-0.0020687165 0 0.00023264066)
(-0.0020685338 0 0.00023363796)
(-0.0020682649 0 0.00023477026)
(-0.0020678769 0 0.00023603881)
(-0.0020673255 0 0.00023743445)
(-0.0020665507 0 0.00023893122)
(-0.0020654721 0 0.0002404769)
(-0.0020639823 0 0.00024197933)
(-0.0020619394 0 0.00024328592)
(-0.0020591564 0 0.00024415567)
(-0.0020553899 0 0.00024421852)
(-0.0020503261 0 0.00024291892)
(-0.0020435655 0 0.00023943836)
(-0.0020346086 0 0.0002325898)
(-0.0020228427 0 0.00022067639)
(-0.0020075355 0 0.00020130896)
(-0.0019878409 0 0.00017119001)
(-0.0019628247 0 0.00012588696)
(-0.0019315185 0 5.9641194e-05)
(-0.0018930077 0 -3.4703135e-05)
(-0.0018465521 0 -0.00016557006)
(-0.0017917231 0 -0.00034214996)
(-0.0017285256 0 -0.00057342211)
(-0.001657463 0 -0.00086674706)
(-0.0015795298 0 -0.0012260741)
(-0.0014960934 0 -0.0016505047)
(-0.0014087135 0 -0.0021333965)
(-0.001319015 0 -0.0026617768)
(-0.0012285929 0 -0.003217107)
(-0.0011389453 0 -0.0037770532)
(-0.0010514266 0 -0.0043180733)
(-0.00096719602 0 -0.0048180617)
(-0.00088709948 0 -0.0052587601)
(-0.00081165503 0 -0.0056268478)
(-0.00074106759 0 -0.0059137351)
(-0.00067524309 0 -0.006114691)
(-0.00061383502 0 -0.0062275431)
(-0.00055629126 0 -0.0062517452)
(-0.00050204009 0 -0.0061867395)
(-0.00045037917 0 -0.0060308882)
(-0.00040041273 0 -0.0057788568)
(-0.00035102146 0 -0.0054206686)
(-0.00030136649 0 -0.0049450943)
(-0.00025025553 0 -0.0043341418)
(-0.00019624658 0 -0.0035648796)
(-0.00013773532 0 -0.0026080015)
(-7.1620651e-05 0 -0.0014091779)
(0 0 0)
(-0.0020569426 0 0.00048627687)
(-0.0020566952 0 0.00048533454)
(-0.0020566056 0 0.00048628064)
(-0.0020564675 0 0.00048738596)
(-0.0020562632 0 0.00048866316)
(-0.0020559675 0 0.00049012733)
(-0.0020555465 0 0.00049178876)
(-0.0020549543 0 0.00049364881)
(-0.0020541289 0 0.00049569355)
(-0.0020529876 0 0.00049788432)
(-0.00205142 0 0.00050014407)
(-0.0020492805 0 0.00050233678)
(-0.0020463779 0 0.00050423884)
(-0.0020424635 0 0.00050549774)
(-0.0020372175 0 0.00050557433)
(-0.002030234 0 0.00050366273)
(-0.0020210067 0 0.00049858045)
(-0.0020089172 0 0.00048861976)
(-0.0019932307 0 0.00047135406)
(-0.0019731031 0 0.00044341218)
(-0.0019476101 0 0.00040024873)
(-0.0019158049 0 0.00033595184)
(-0.0018768093 0 0.00024318817)
(-0.0018299394 0 0.00011333017)
(-0.0017748396 0 -6.3014186e-05)
(-0.0017115956 0 -0.00029498204)
(-0.0016407868 0 -0.00059003094)
(-0.0015634572 0 -0.00095216486)
(-0.0014809789 0 -0.0013805716)
(-0.0013948701 0 -0.0018687353)
(-0.0013066733 0 -0.002403849)
(-0.0012178743 0 -0.0029676003)
(-0.0011298571 0 -0.003537856)
(-0.0010438783 0 -0.0040911671)
(-0.00096102712 0 -0.0046053455)
(-0.00088211577 0 -0.0050618202)
(-0.00080765929 0 -0.0054468043)
(-0.00073787872 0 -0.0057511543)
(-0.00067270759 0 -0.0059696491)
(-0.00061183273 0 -0.0060997182)
(-0.00055473496 0 -0.0061405024)
(-0.00050085689 0 -0.0060912038)
(-0.00044950929 0 -0.0059499978)
(-0.00039981805 0 -0.0057116061)
(-0.00035069211 0 -0.0053663033)
(-0.00030126797 0 -0.0049026967)
(-0.00025035427 0 -0.0043029065)
(-0.00019650235 0 -0.0035438694)
(-0.00013805081 0 -0.0025957068)
(-7.1955241e-05 0 -0.0014050271)
(0 0 0)
(-0.0020439059 0 0.00073494671)
(-0.0020436569 0 0.00073412127)
(-0.0020435515 0 0.00073526312)
(-0.0020433939 0 0.000736601)
(-0.0020431654 0 0.00073815478)
(-0.0020428399 0 0.00073994768)
(-0.002042382 0 0.00074199934)
(-0.0020417441 0 0.00074432172)
(-0.0020408622 0 0.0007469129)
(-0.0020396509 0 0.00074974754)
(-0.0020379968 0 0.00075276331)
(-0.0020357504 0 0.00075584033)
(-0.0020327156 0 0.00075877188)
(-0.0020286383 0 0.00076122264)
(-0.0020231921 0 0.00076266948)
(-0.002015964 0 0.00076231884)
(-0.0020064409 0 0.00075899218)
(-0.0019939988 0 0.00075096849)
(-0.0019779009 0 0.00073577273)
(-0.0019573066 0 0.00070994455)
(-0.0019313029 0 0.00066881576)
(-0.0018989667 0 0.00060631262)
(-0.0018594586 0 0.00051493143)
(-0.0018121552 0 0.00038584735)
(-0.001756779 0 0.00020947668)
(-0.0016934989 0 -2.3443367e-05)
(-0.0016229718 0 -0.000320429)
(-0.0015462894 0 -0.00068549635)
(-0.0014648251 0 -0.0011178785)
(-0.0013800514 0 -0.0016111517)
(-0.0012934247 0 -0.0021526539)
(-0.0012063192 0 -0.002724298)
(-0.0011200041 0 -0.0033041691)
(-0.0010356378 0 -0.0038689503)
(-0.00095423912 0 -0.0043964281)
(-0.00087658452 0 -0.0048677801)
(-0.00080318391 0 -0.0052688102)
(-0.00073427287 0 -0.0055898636)
(-0.0006698115 0 -0.0058252472)
(-0.00060951937 0 -0.0059719958)
(-0.00055290977 0 -0.0060289334)
(-0.00049944169 0 -0.0059950127)
(-0.00044844009 0 -0.0058682165)
(-0.00039905252 0 -0.0056432992)
(-0.00035021492 0 -0.0053107543)
(-0.00030104379 0 -0.0048590543)
(-0.00025034842 0 -0.0042704206)
(-0.00019667392 0 -0.0035216837)
(-0.00013830716 0 -0.0025824672)
(-7.2250525e-05 0 -0.0014002317)
(0 0 0)
(-0.002030073 0 0.0009782077)
(-0.0020298213 0 0.00097749782)
(-0.0020296982 0 0.0009788345)
(-0.0020295187 0 0.00098040408)
(-0.0020292633 0 0.00098223367)
(-0.0020289046 0 0.00098435465)
(-0.0020284059 0 0.00098679594)
(-0.0020277175 0 0.00098957988)
(-0.0020267733 0 0.00099271649)
(-0.002025485 0 0.00099619369)
(-0.0020237358 0 0.00099996368)
(-0.0020213719 0 0.0010039225)
(-0.0020181922 0 0.0010078802)
(-0.0020139365 0 0.0010115187)
(-0.0020082713 0 0.0010143311)
(-0.0020007762 0 0.001015537)
(-0.0019909306 0 0.0010139624)
(-0.0019781051 0 0.0010078724)
(-0.001961563 0 0.00099472197)
(-0.0019404691 0 0.00097093724)
(-0.0019139221 0 0.00093172498)
(-0.0018810246 0 0.0008708395)
(-0.0018409783 0 0.00078062346)
(-0.0017932253 0 0.00065206184)
(-0.0017375712 0 0.00047538313)
(-0.0016742699 0 0.00024123811)
(-0.0016040567 0 -5.7910847e-05)
(-0.0015280687 0 -0.0004260513)
(-0.0014476764 0 -0.00086242342)
(-0.0013643019 0 -0.0013606619)
(-0.0012793115 0 -0.0019082319)
(-0.001193966 0 -0.0024872703)
(-0.0011094194 0 -0.0030760959)
(-0.0010267322 0 -0.0036515591)
(-0.00094685308 0 -0.0041914739)
(-0.00087052136 0 -0.0046768234)
(-0.00079823996 0 -0.0050930579)
(-0.00073025753 0 -0.0054300537)
(-0.00066655964 0 -0.005681666)
(-0.00060689781 0 -0.0058445412)
(-0.00055081744 0 -0.0059171846)
(-0.00049779533 0 -0.0058982927)
(-0.00044717178 0 -0.0057856489)
(-0.00039811592 0 -0.0055740207)
(-0.00034958972 0 -0.0052540906)
(-0.00030069365 0 -0.0048142209)
(-0.00025023762 0 -0.0042367255)
(-0.00019676097 0 -0.0034983533)
(-0.00013850382 0 -0.0025682993)
(-7.2506629e-05 0 -0.0013948043)
(0 0 0)
(-0.0020154656 0 0.0012161715)
(-0.0020152128 0 0.0012155791)
(-0.0020150699 0 0.0012171137)
(-0.002014866 0 0.0012189189)
(-0.0020145807 0 0.001221028)
(-0.0020141852 0 0.00122348)
(-0.0020136413 0 0.0012263125)
(-0.0020128975 0 0.0012295581)
(-0.0020118849 0 0.0012332384)
(-0.0020105124 0 0.0012373547)
(-0.0020086594 0 0.0012418742)
(-0.0020061673 0 0.001246709)
(-0.0020028297 0 0.001251687)
(-0.0019983795 0 0.0012565078)
(-0.0019924758 0 0.0012606821)
(-0.0019846898 0 0.0012634437)
(-0.0019744929 0 0.0012636279)
(-0.0019612508 0 0.0012594947)
(-0.0019442315 0 0.0012483754)
(-0.0019226068 0 0.001226544)
(-0.0018954853 0 0.0011891117)
(-0.0018619989 0 0.0011296406)
(-0.001821391 0 0.0010403515)
(-0.0017731755 0 0.00091204736)
(-0.0017172468 0 0.00073475748)
(-0.001653944 0 0.00049910031)
(-0.0015840818 0 0.00019754933)
(-0.001508839 0 -0.00017381375)
(-0.0014295787 0 -0.00061420049)
(-0.0013476673 0 -0.0011172747)
(-0.0012643772 0 -0.0016706117)
(-0.0011808542 0 -0.0022565726)
(-0.0010981372 0 -0.002853723)
(-0.0010171898 0 -0.0034391114)
(-0.0009388914 0 -0.0039906289)
(-0.0008639432 0 -0.0044891169)
(-0.00079283972 0 -0.0049197253)
(-0.00072584124 0 -0.0052719034)
(-0.00066295768 0 -0.0055390772)
(-0.00060397168 0 -0.0057175133)
(-0.00054846021 0 -0.0058053981)
(-0.00049591913 0 -0.0058011669)
(-0.00044570489 0 -0.0057023981)
(-0.00039700833 0 -0.0055038545)
(-0.00034881646 0 -0.0051963809)
(-0.0003002173 0 -0.0047682504)
(-0.00025002155 0 -0.004201863)
(-0.0001967632 0 -0.0034739087)
(-0.00013864022 0 -0.0025532206)
(-7.2723731e-05 0 -0.0013887589)
(0 0 0)
(-0.0020001154 0 0.0014489484)
(-0.0019998561 0 0.0014484719)
(-0.0019996913 0 0.0014502038)
(-0.0019994606 0 0.001452244)
(-0.0019991424 0 0.0014546325)
(-0.0019987066 0 0.0014574154)
(-0.0019981133 0 0.001460639)
(-0.0019973087 0 0.0014643459)
(-0.0019962216 0 0.0014685693)
(-0.0019947573 0 0.0014733236)
(-0.0019927912 0 0.0014785908)
(-0.0019901598 0 0.0014842995)
(-0.0019866503 0 0.0014902954)
(-0.0019819887 0 0.0014962971)
(-0.0019758254 0 0.0015018339)
(-0.0019677226 0 0.0015061581)
(-0.0019571431 0 0.0015081125)
(-0.0019434577 0 0.0015058519)
(-0.0019259416 0 0.001496592)
(-0.001903762 0 0.001476553)
(-0.0018760366 0 0.0014407555)
(-0.0018419232 0 0.0013826431)
(-0.0018007196 0 0.0012941904)
(-0.0017520317 0 0.0011658712)
(-0.0016958377 0 0.00098764364)
(-0.001632558 0 0.00075017676)
(-0.0015630886 0 0.000445977)
(-0.0014886457 0 7.1235766e-05)
(-0.0014105793 0 -0.00037319723)
(-0.0013301949 0 -0.00088098841)
(-0.0012486668 0 -0.0014398089)
(-0.0011670247 0 -0.0020322444)
(-0.0010861931 0 -0.0026371187)
(-0.0010070402 0 -0.003231706)
(-0.00093037765 0 -0.0037940206)
(-0.00085686804 0 -0.0043048101)
(-0.0007869965 0 -0.0047489751)
(-0.00072103346 0 -0.0051155793)
(-0.00065901208 0 -0.005397643)
(-0.00060074528 0 -0.0055910638)
(-0.0005458409 0 -0.0056937114)
(-0.0004938148 0 -0.0057037563)
(-0.00044404031 0 -0.005618566)
(-0.00039573004 0 -0.0054328843)
(-0.00034789523 0 -0.0051376941)
(-0.00029961464 0 -0.0047211972)
(-0.00024969994 0 -0.0041658754)
(-0.00019668033 0 -0.0034483815)
(-0.00013871587 0 -0.0025372489)
(-7.2901896e-05 0 -0.0013821079)
(0 0 0)
(-0.0019840364 0 0.0016766448)
(-0.0019837734 0 0.0016762889)
(-0.0019835845 0 0.0016782219)
(-0.0019833244 0 0.0016804996)
(-0.0019829703 0 0.0016831674)
(-0.0019824909 0 0.001686279)
(-0.0019818441 0 0.0016898899)
(-0.001980974 0 0.0016940533)
(-0.0019798063 0 0.0016988147)
(-0.0019782427 0 0.0017042021)
(-0.0019761542 0 0.001710213)
(-0.0019733716 0 0.0017167929)
(-0.0019696758 0 0.0017238057)
(-0.0019647843 0 0.0017309898)
(-0.0019583387 0 0.0017378965)
(-0.0019498913 0 0.0017437951)
(-0.0019389088 0 0.0017474365)
(-0.0019247739 0 0.0017467912)
(-0.0019067477 0 0.0017391064)
(-0.0018839846 0 0.0017206575)
(-0.0018556192 0 0.0016863367)
(-0.001820835 0 0.0016295473)
(-0.0017790065 0 0.0015418944)
(-0.0017298338 0 0.0014134425)
(-0.0016733767 0 0.0012340767)
(-0.0016101499 0 0.00099449626)
(-0.0015411207 0 0.00068739493)
(-0.0014675358 0 0.00030911786)
(-0.0013907269 0 -0.00013939547)
(-0.001311933 0 -0.00065179218)
(-0.001232226 0 -0.0012158259)
(-0.0011525191 0 -0.0018143096)
(-0.0010736233 0 -0.0024263341)
(-0.00099631383 0 -0.0030294233)
(-0.00092133644 0 -0.0036017577)
(-0.00084931503 0 -0.0041240351)
(-0.00078072463 0 -0.0045809547)
(-0.00071584459 0 -0.0049612353)
(-0.00065473018 0 -0.0052575155)
(-0.00059722358 0 -0.0054653372)
(-0.00054296285 0 -0.0055822564)
(-0.00049148449 0 -0.005606178)
(-0.00044217923 0 -0.0055342525)
(-0.00039428161 0 -0.005361193)
(-0.00034682631 0 -0.005078099)
(-0.00029888563 0 -0.0046731158)
(-0.0002492726 0 -0.0041288053)
(-0.00019651211 0 -0.0034218032)
(-0.00013873031 0 -0.0025204035)
(-7.3041205e-05 0 -0.0013748643)
(0 0 0)
(-0.0019672588 0 0.0018993665)
(-0.0019669904 0 0.0018991183)
(-0.0019667763 0 0.0019012399)
(-0.0019664854 0 0.001903743)
(-0.0019660932 0 0.0019066812)
(-0.0019655668 0 0.0019101166)
(-0.0019648621 0 0.0019141135)
(-0.0019639207 0 0.0019187353)
(-0.0019626652 0 0.0019240387)
(-0.0019609935 0 0.0019300645)
(-0.0019587717 0 0.0019368245)
(-0.001955825 0 0.0019442803)
(-0.0019519268 0 0.0019523138)
(-0.001946786 0 0.0019606846)
(-0.0019400336 0 0.0019689717)
(-0.001931223 0 0.0019763879)
(-0.0019198346 0 0.0019815137)
(-0.0019052367 0 0.0019823189)
(-0.0018866648 0 0.0019761267)
(-0.001863279 0 0.0019591456)
(-0.001834235 0 0.0019261407)
(-0.0017987573 0 0.0018703693)
(-0.0017562949 0 0.0017832075)
(-0.0017066139 0 0.0016546382)
(-0.0016498923 0 0.0014740878)
(-0.0015867592 0 0.001232083)
(-0.0015182228 0 0.0009218245)
(-0.0014455575 0 0.00053985587)
(-0.0013700716 0 8.722911e-05)
(-0.0012929311 0 -0.00042966583)
(-0.0012151016 0 -0.00099865369)
(-0.0011373799 0 -0.001602778)
(-0.0010604649 0 -0.0022214041)
(-0.00098504192 0 -0.002832326)
(-0.00091179316 0 -0.0034139318)
(-0.00084130408 0 -0.0039469072)
(-0.00077403928 0 -0.0044157965)
(-0.00071028585 0 -0.0048090124)
(-0.00065011996 0 -0.0051188368)
(-0.00059341218 0 -0.0053404703)
(-0.0005398299 0 -0.00547116)
(-0.00048893074 0 -0.0055085458)
(-0.00044012317 0 -0.0054495559)
(-0.00039266383 0 -0.0052888628)
(-0.00034561014 0 -0.0050176639)
(-0.0002980304 0 -0.0046240615)
(-0.00024873939 0 -0.004090696)
(-0.00019625833 0 -0.0033942065)
(-0.00013868307 0 -0.0025027037)
(-7.3141755e-05 0 -0.001367042)
(0 0 0)
(-0.0019498056 0 0.0021172157)
(-0.0019495279 0 0.0021170805)
(-0.0019492861 0 0.0021193966)
(-0.0019489611 0 0.0021221303)
(-0.0019485274 0 0.002125342)
(-0.00194795 0 0.0021291016)
(-0.0019471828 0 0.0021334826)
(-0.0019461646 0 0.0021385585)
(-0.0019448146 0 0.0021443981)
(-0.0019430266 0 0.0021510556)
(-0.0019406616 0 0.0021585574)
(-0.0019375382 0 0.0021668812)
(-0.0019334222 0 0.0021759258)
(-0.0019280131 0 0.0021854661)
(-0.0019209363 0 0.0021950922)
(-0.0019117571 0 0.0022038877)
(-0.001899949 0 0.0022103794)
(-0.0018848492 0 0.002212647)
(-0.0018656883 0 0.0022079524)
(-0.0018416405 0 0.0021923709)
(-0.0018118841 0 0.0021605393)
(-0.0017756942 0 0.002105488)
(-0.0017325859 0 0.0020184456)
(-0.0016823942 0 0.0018894755)
(-0.001625427 0 0.001707581)
(-0.0015624274 0 0.0014629588)
(-0.0014944414 0 0.0011492856)
(-0.0014227606 0 0.00076347515)
(-0.0013486644 0 0.00030670614)
(-0.0012732393 0 -0.0002145812)
(-0.0011973409 0 -0.00078827213)
(-0.0011216498 0 -0.0013976464)
(-0.0010467555 0 -0.002022349)
(-0.00097325619 0 -0.0026404613)
(-0.00090177383 0 -0.0032306182)
(-0.00083285581 0 -0.0037735263)
(-0.00076695632 0 -0.0042536189)
(-0.00070436907 0 -0.0046590399)
(-0.00064519005 0 -0.0049817392)
(-0.00058931719 0 -0.0052165921)
(-0.00053644635 0 -0.0053605433)
(-0.00048615646 0 -0.0054109695)
(-0.00043787395 0 -0.0053645718)
(-0.00039087772 0 -0.0052159748)
(-0.00034424728 0 -0.004956457)
(-0.00029704912 0 -0.0045740891)
(-0.00024810026 0 -0.004051591)
(-0.00019591879 0 -0.003365624)
(-0.00013857376 0 -0.0024841697)
(-7.3203556e-05 0 -0.0013586538)
(0 0 0)
(-0.0019316904 0 0.0023302927)
(-0.0019314055 0 0.0023302702)
(-0.0019311338 0 0.002332781)
(-0.0019307722 0 0.0023357459)
(-0.0019302936 0 0.0023392318)
(-0.0019296613 0 0.0023433162)
(-0.0019288268 0 0.0023480815)
(-0.001927726 0 0.0023536114)
(-0.0019262745 0 0.0023599863)
(-0.0019243616 0 0.0023672736)
(-0.0019218427 0 0.0023755146)
(-0.0019185296 0 0.0023847035)
(-0.0019141799 0 0.0023947567)
(-0.0019084837 0 0.0024054652)
(-0.0019010728 0 0.0024163305)
(-0.0018915149 0 0.0024263835)
(-0.0018792562 0 0.0024342379)
(-0.0018636167 0 0.0024379562)
(-0.0018438307 0 0.0024346955)
(-0.0018190827 0 0.0024204297)
(-0.00178858 0 0.002389633)
(-0.0017516503 0 0.0023351307)
(-0.0017078841 0 0.0022479344)
(-0.001657211 0 0.0021179973)
(-0.0016000266 0 0.0019344565)
(-0.0015371933 0 0.0016871428)
(-0.0014698247 0 0.0013698007)
(-0.0013991963 0 0.0009800078)
(-0.0013265575 0 0.00051907493)
(-0.0012529086 0 -6.4981343e-06)
(-0.0011789916 0 -0.00058464699)
(-0.0011053724 0 -0.0011988957)
(-0.0010325331 0 -0.001829172)
(-0.00096098883 0 -0.0024538582)
(-0.00089130503 0 -0.0030518742)
(-0.0008239915 0 -0.0036039749)
(-0.00075949228 0 -0.0040945246)
(-0.00069810679 0 -0.0045114335)
(-0.00063994972 0 -0.0048463438)
(-0.0005849453 0 -0.0050938232)
(-0.00053281696 0 -0.0052505212)
(-0.00048316495 0 -0.0053135551)
(-0.00043543368 0 -0.0052793934)
(-0.00038892453 0 -0.0051426087)
(-0.00034273848 0 -0.0048945458)
(-0.00029594213 0 -0.0045232541)
(-0.00024735521 0 -0.0040115343)
(-0.00019549331 0 -0.0033360888)
(-0.00013840197 0 -0.0024648224)
(-7.3226697e-05 0 -0.001349714)
(0 0 0)
(-0.0019129393 0 0.0025386956)
(-0.0019126433 0 0.0025387851)
(-0.0019123393 0 0.0025414906)
(-0.0019119384 0 0.0025446865)
(-0.0019114117 0 0.0025484465)
(-0.0019107205 0 0.0025528555)
(-0.0019098138 0 0.0025580047)
(-0.0019086245 0 0.0025639881)
(-0.0019070641 0 0.0025708974)
(-0.0019050173 0 0.0025788135)
(-0.0019023333 0 0.0025877925)
(-0.0018988165 0 0.0025978466)
(-0.0018942149 0 0.002608915)
(-0.001888217 0 0.0026207748)
(-0.0018804643 0 0.0026328027)
(-0.0018705071 0 0.0026440608)
(-0.0018577649 0 0.0026532492)
(-0.0018415522 0 0.0026583545)
(-0.0018211034 0 0.0026564588)
(-0.0017956164 0 0.0026434233)
(-0.0017643349 0 0.0026135178)
(-0.001726642 0 0.0025593783)
(-0.001682216 0 0.0024717398)
(-0.0016310869 0 0.002340366)
(-0.0015737268 0 0.0021547369)
(-0.001511112 0 0.0019045269)
(-0.0014444225 0 0.0015833909)
(-0.0013749166 0 0.001189488)
(-0.0013038037 0 0.00072437942)
(-0.0012319904 0 0.00019463027)
(-0.0011601016 0 -0.00038773542)
(-0.0010885906 0 -0.0010064966)
(-0.0010178444 0 -0.0016419823)
(-0.00094829042 0 -0.002272786)
(-0.00088042973 0 -0.0028779909)
(-0.00081474599 0 -0.0034385464)
(-0.00075167047 0 -0.0039387177)
(-0.00069151197 0 -0.0043662973)
(-0.0006344086 0 -0.0047127617)
(-0.00058030359 0 -0.0049722762)
(-0.00052894683 0 -0.0051412022)
(-0.00047995978 0 -0.0052164036)
(-0.00043280472 0 -0.0051941111)
(-0.00038680572 0 -0.0050688427)
(-0.00034108463 0 -0.0048319971)
(-0.00029470982 0 -0.0044716115)
(-0.00024650429 0 -0.0039705702)
(-0.00019498181 0 -0.0033056354)
(-0.00013816737 0 -0.0024446833)
(-7.321113e-05 0 -0.0013402352)
(0 0 0)
(-0.0018935665 0 0.0027425197)
(-0.0018932606 0 0.0027427211)
(-0.0018929222 0 0.002745621)
(-0.0018924791 0 0.0027490478)
(-0.001891901 0 0.0027530814)
(-0.0018911469 0 0.0027578144)
(-0.0018901631 0 0.0027633465)
(-0.0018888791 0 0.0027697815)
(-0.0018872025 0 0.0027772226)
(-0.0018850126 0 0.002785763)