/*--------------------------------*- C++ -*----------------------------------*\
  =========                 |
  \\      /  F ield         | OpenFOAM: The Open Source CFD Toolbox
   \\    /   O peration     | Website:  https://openfoam.org
    \\  /    A nd           | Version:  8
     \\/     M anipulation  |
\*---------------------------------------------------------------------------*/
FoamFile
{
    version     2.0;
    format      ascii;
    class       volScalarField;
    location    "0.199992";
    object      rho;
}
// * * * * * * * * * * * * * * * * * * * * * * * * * * * * * * * * * * * * * //

dimensions      [1 -3 0 0 0 0 0];

internalField   nonuniform List<scalar> 
20000
(
0.98416384
0.98542965
0.98899238
0.99627202
1.0099841
1.0332256
1.0390418
1.0405948
1.0396728
1.0408459
1.0406898
1.041942
1.0424472
1.0440128
1.0452223
1.0473388
1.0493966
1.0522904
1.0553967
1.0593593
1.063917
1.0695458
1.0758524
1.0830926
1.0910431
1.0997529
1.1089706
1.1184321
1.127756
1.1365942
1.144628
1.1516504
1.1575438
1.1622861
1.1658897
1.1685309
1.1704482
1.171531
1.1719204
1.1719427
1.1716053
1.1709973
1.1703014
1.1697176
1.1690489
1.1677733
1.1658471
1.1646581
1.1637205
1.1627584
0.98190911
0.98344576
0.98726679
0.99498374
1.0096423
1.0327192
1.0373387
1.0389508
1.0380876
1.0393399
1.0392301
1.0405468
1.0410936
1.0427195
1.0439793
1.0461585
1.0482701
1.0512255
1.0544263
1.0585685
1.0634143
1.0692484
1.0757979
1.083137
1.0913135
1.1002204
1.109612
1.1191968
1.1285822
1.1374129
1.1453813
1.1522977
1.1580697
1.1626848
1.1661705
1.1687909
1.1706254
1.1716077
1.1719227
1.1719649
1.1716018
1.1709775
1.1702815
1.1697033
1.1690032
1.167588
1.165704
1.1645563
1.1636849
1.1627544
0.98051428
0.98227641
0.98639525
0.9946079
1.0104339
1.0328751
1.0361647
1.0377098
1.0368246
1.0381032
1.0379944
1.0393496
1.0399254
1.0416023
1.0429019
1.0451306
1.047304
1.0503686
1.0537992
1.0582343
1.0632686
1.0692332
1.075834
1.0834122
1.0917898
1.1009017
1.1104641
1.1201636
1.1295946
1.1383974
1.1462764
1.1530623
1.1586885
1.1631521
1.1665048
1.1690958
1.1708315
1.171699
1.1719599
1.172001
1.1716053
1.1709645
1.1702682
1.1696968
1.1689505
1.1673271
1.1655119
1.1643862
1.1636266
1.1628608
0.9789833
0.98107564
0.98549036
0.99416976
1.0112317
1.032829
1.0349815
1.0365546
1.035672
1.0370101
1.0369161
1.038322
1.0389394
1.040671
1.0420151
1.0443123
1.0466211
1.0499286
1.0535659
1.0581236
1.0632419
1.0692724
1.0761327
1.0839281
1.0925385
1.101857
1.1115843
1.1213828
1.1308352
1.1395808
1.147339
1.1539652
1.1594183
1.1637048
1.166917
1.1694486
1.1710429
1.1717965
1.1720185
1.1720431
1.1716099
1.1709491
1.1702526
1.169689
1.1688859
1.1670425
1.1652969
1.1642543
1.1636085
1.1629238
0.97790667
0.98025631
0.98496443
0.99410239
1.0124732
1.0329631
1.0340683
1.0356811
1.0347708
1.0361597
1.0360753
1.0375086
1.0381729
1.0399591
1.0413927
1.0438672
1.0463499
1.0497703
1.0535109
1.0581272
1.0633669
1.0696103
1.0766707
1.0847065
1.0935459
1.1030701
1.1129531
1.1228331
1.1322817
1.1409407
1.1485482
1.154987
1.1602407
1.1643276
1.1674022
1.1698261
1.1712716
1.1719103
1.1720955
1.1720874
1.1716178
1.1709355
1.1702392
1.1696824
1.1688065
1.1667298
1.1650625
1.1641168
1.1636003
1.1630007
0.97696268
0.97963084
0.98465629
0.99424241
1.0139397
1.0330884
1.0333463
1.0350052
1.0340705
1.0355115
1.0354659
1.0369816
1.0376837
1.0395891
1.0411382
1.0437048
1.0462689
1.0497467
1.05354
1.0583122
1.0637415
1.0701766
1.0774787
1.0857536
1.0948298
1.1045563
1.1145829
1.1245229
1.1339391
1.1424795
1.1499047
1.1561277
1.1611546
1.1650204
1.1679601
1.17023
1.1715157
1.1720428
1.1721901
1.1721282
1.1716278
1.170922
1.1702264
1.1696725
1.1687045
1.1664312
1.1648305
1.1639828
1.1635898
1.1630819
0.97629066
0.9792619
0.98462043
0.99464742
1.0156235
1.033227
1.0328001
1.0345048
1.0336458
1.0351015
1.0351566
1.0367368
1.0374805
1.0394538
1.0410602
1.0436741
1.0462795
1.0498508
1.053805
1.0587348
1.0643576
1.0710157
1.0785557
1.0870792
1.096392
1.1063149
1.1164695
1.1264449
1.1357973
1.1441856
1.1513972
1.1573764
1.162149
1.1657751
1.1685789
1.1706588
1.1717758
1.1721936
1.1723017
1.1721729
1.1716399
1.1709096
1.1702151
1.1696563
1.1685708
1.1661609
1.1646172
1.163838
1.1635525
1.1631782
0.9757865
0.9790816
0.98481338
0.9953067
1.0174562
1.0334095
1.0324804
1.034237
1.0334324
1.0349728
1.0350122
1.0366526
1.0374231
1.0394301
1.0410672
1.043754
1.0464779
1.050183
1.0542867
1.0593975
1.0652322
1.0721182
1.0799118
1.0886883
1.0982385
1.108349
1.1186125
1.1285951
1.1378498
1.1460514
1.1530177
1.1587247
1.1632157
1.1665895
1.16925
1.1711094
1.1720491
1.1723598
1.1724279
1.1722307
1.1716539
1.1708983
1.1702052
1.1696304
1.1683972
1.1659251
1.1644327
1.1636996
1.1634661
1.1632936
0.97550262
0.9791303
0.98527403
0.99628558
1.0194223
1.0336787
1.0323714
1.0341737
1.0333575
1.0349066
1.0349627
1.036649
1.037441
1.0395239
1.0412528
1.0440485
1.0468899
1.0507339
1.0550114
1.0603116
1.0663687
1.0734973
1.0815514
1.0905864
1.1003714
1.1106576
1.1210072
1.1309651
1.140086
1.1480655
1.1547549
1.1601606
1.1643448
1.1674656
1.1699591
1.1715749
1.172332
1.1725471
1.1725631
1.1722943
1.1716697
1.1708885
1.1701967
1.1695925
1.168182
1.1657185
1.1642675
1.1635714
1.1633572
1.1634143
0.97535879
0.97933883
0.98593263
0.99753764
1.0213886
1.0339567
1.0323293
1.0341663
1.0333448
1.0349328
1.0350187
1.0367595
1.0376595
1.0398315
1.0416487
1.0445522
1.0475266
1.051521
1.0559786
1.0614815
1.0677739
1.0751551
1.0834795
1.0927763
1.1027916
1.1132379
1.1236469
1.1335453
1.1424946
1.150216
1.1565963
1.1616708
1.1655285
1.1684097
1.1706886
1.1720483
1.1726227
1.1727602
1.1727018
1.17236
1.1716867
1.1708803
1.1701896
1.1695419
1.1679464
1.1655216
1.1641123
1.1634495
1.1632504
1.1635279
0.97538071
0.97971335
0.98679344
0.99910002
1.0233539
1.0343129
1.0324705
1.0344106
1.0335652
1.0352456
1.0353208
1.0371277
1.0380931
1.040347
1.0422596
1.0452789
1.0483927
1.052546
1.0571971
1.0629137
1.0694531
1.0770982
1.0856999
1.0952605
1.1054983
1.1160854
1.126523
1.1363241
1.1450625
1.1524889
1.1585269
1.1632414
1.1667613
1.169417
1.1714243
1.1725241
1.1729273
1.1729912
1.1728448
1.172428
1.1717044
1.170874
1.170184
1.1694788
1.1676966
1.1653284
1.1639635
1.1633331
1.1631483
1.1636309
0.97556889
0.98025966
0.98785326
1.0010046
1.0252877
1.0347795
1.0328013
1.0347954
1.033996
1.0357346
1.0358284
1.0377047
1.038727
1.0410712
1.0430866
1.0462288
1.0494929
1.0538152
1.05867
1.064612
1.0714103
1.0793291
1.0882149
1.0980388
1.1084882
1.1191927
1.1296246
1.1392881
1.1477744
1.1548677
1.1605301
1.1648604
1.1680428
1.1704653
1.1721599
1.1729972
1.1732551
1.1732324
1.1729902
1.1724957
1.171722
1.1708694
1.1701795
1.1694035
1.1674341
1.1651367
1.1638229
1.1632245
1.1630523
1.1637274
0.97599444
0.98103359
0.98914795
1.0033007
1.0271876
1.0353765
1.0333421
1.035344
1.0346043
1.0363588
1.0365279
1.0384667
1.0395659
1.0420076
1.0441349
1.0474075
1.0508309
1.0553314
1.0604019
1.0665808
1.0736494
1.0818517
1.0910266
1.1011106
1.1117569
1.122551
1.1329392
1.142422
1.1506132
1.1573341
1.1625894
1.1665198
1.1693757
1.1715289
1.172886
1.1734698
1.1736093
1.1734765
1.1731371
1.1725626
1.1717383
1.1708661
1.1701754
1.1693146
1.1671564
1.1649456
1.1636924
1.1631283
1.1629678
1.1638212
0.97658727
0.98197857
0.99061997
1.0059475
1.0290693
1.0360973
1.0340678
1.0360848
1.0353778
1.037196
1.0374173
1.0394405
1.0406174
1.0431613
1.0454072
1.0488172
1.0524092
1.0570976
1.0623947
1.0688221
1.0761723
1.0846672
1.0941345
1.104473
1.1152972
1.1261491
1.1364519
1.1457081
1.1535585
1.1598682
1.1646908
1.1682169
1.170757
1.1725781
1.1735962
1.1739559
1.1739768
1.1737228
1.1732841
1.1726273
1.1717517
1.1708637
1.1701695
1.1692082
1.1668616
1.1647538
1.1635723
1.1630487
1.1628984
1.1639163
0.97738514
0.9831282
0.99230002
1.0089696
1.0309637
1.037033
1.0349645
1.0370482
1.0363544
1.0382138
1.0385181
1.0406216
1.0418824
1.044533
1.0469049
1.0504588
1.0542292
1.0591154
1.0646511
1.071339
1.0789818
1.0877771
1.0975384
1.108122
1.119101
1.1299744
1.1401464
1.1491262
1.1565884
1.162452
1.1668256
1.1699511
1.1721572
1.1735988
1.1742876
1.1744687
1.1743461
1.1739686
1.1734299
1.1726893
1.1717609
1.1708616
1.1701582
1.1690763
1.1665503
1.1645615
1.1634628
1.1629878
1.1628562
1.1640168
0.97840049
0.9844933
0.9941901
1.0123273
1.032857
1.0381452
1.0360489
1.0381953
1.0375196
1.0394708
1.0398215
1.0420109
1.0433601
1.0461219
1.0486271
1.0523327
1.0562916
1.0613862
1.0671724
1.0741327
1.0820788
1.0911813
1.1012355
1.1120513
1.1231576
1.1340117
1.1440028
1.1526529
1.159681
1.1650725
1.1689906
1.1717155
1.1735378
1.1745842
1.1749805
1.1749923
1.1747133
1.1742124
1.1735735
1.1727479
1.171767
1.1708591
1.1701355
1.1689048
1.1662303
1.1643707
1.1633643
1.162944
1.162841
1.1641259
0.9795896
0.98604545
0.99628233
1.0159687
1.0347474
1.0393736
1.037319
1.0395406
1.0388829
1.0409152
1.0413271
1.0436046
1.0450482
1.0479264
1.0505736
1.0544386
1.0585971
1.0639115
1.069961
1.0772058
1.0854651
1.0948801
1.1052231
1.1162541
1.1274552
1.138244
1.1479991
1.1562638
1.162819
1.1677239
1.1711817
1.1734811
1.1748717
1.1755335
1.175692
1.1755115
1.1750752
1.1744521
1.1737136
1.172802
1.1717761
1.1708557
1.1700952
1.1686769
1.1659166
1.1641846
1.1632736
1.1629026
1.1628394
1.1642448
0.98099491
0.98783086
0.99863516
1.0199063
1.0366784
1.0408639
1.0387832
1.0410752
1.0404442
1.0425568
1.0430293
1.0453996
1.0469444
1.0499453
1.0527437
1.0567776
1.061147
1.0666929
1.0730181
1.0805591
1.0891409
1.0988717
1.1094966
1.1207211
1.1319794
1.1426511
1.1521098
1.1599356
1.1659929
1.1704027
1.1733812
1.1752029
1.1761526
1.1764734
1.1764035
1.1760208
1.1754293
1.1746862
1.1738484
1.1728506
1.1717904
1.1708512
1.1700323
1.1683826
1.1656246
1.1640033
1.1631823
1.1628657
1.1628435
1.164374
0.98254962
0.98978739
1.0011993
1.0240056
1.0386238
1.0424893
1.0404181
1.0427873
1.0421979
1.0443855
1.0449266
1.0473949
1.0490486
1.0521788
1.0551383
1.0593501
1.0639427
1.0697322
1.0763457
1.0841946
1.093107
1.1031551
1.1140511
1.1254425
1.1367139
1.1472098
1.1563085
1.1636517
1.1692
1.1730958
1.1755409
1.1768617
1.1773882
1.1774187
1.177097
1.1765164
1.1757732
1.1749127
1.1739757
1.1728956
1.1717948
1.1708458
1.1699456
1.1680356
1.165355
1.163826
1.1630875
1.1628589
1.162933
1.164513
0.98427139
0.99193407
1.0040181
1.0282457
1.0406254
1.0443034
1.0422449
1.0446852
1.0441366
1.0464063
1.0470203
1.049591
1.0513611
1.0546273
1.0577581
1.062158
1.0669856
1.0730307
1.0799449
1.0881129
1.0973629
1.107727
1.1188793
1.1304055
1.1416388
1.1518936
1.1605711
1.1674044
1.1724331
1.1757583
1.1776314
1.1784506
1.1786127
1.1783394
1.1777703
1.1769955
1.1761052
1.1751299
1.1740938
1.1729409
1.1717956
1.1708399
1.1698379
1.1676637
1.1650964
1.1636609
1.163001
1.162858
1.1636923
1.1646595
0.98617859
0.99427659
1.0071168
1.0325631
1.0426987
1.0462919
1.0442579
1.0467665
1.0462635
1.0486172
1.0493096
1.0519873
1.0538821
1.0572915
1.0606046
1.0652021
1.0702769
1.0765898
1.0838175
1.0923155
1.1019087
1.1125846
1.1239736
1.1355955
1.1467314
1.1566753
1.1648802
1.1711924
1.1756568
1.1783498
1.1796333
1.1799997
1.1798096
1.1792296
1.1784179
1.1774554
1.1764232
1.1753358
1.1742028
1.1729862
1.1717979
1.1708331
1.1697132
1.167278
1.164848
1.1635248
1.1629637
1.16286
1.1640479
1.1648151
0.98825381
0.99679148
1.0105029
1.0368315
1.0448629
1.0484625
1.0464503
1.0490319
1.0485758
1.0510174
1.051794
1.0545842
1.0566127
1.0601728
1.0636784
1.0684837
1.0738174
1.080411
1.0879648
1.0968033
1.1067434
1.1177236
1.1293242
1.1409944
1.1519654
1.1615292
1.1692275
1.1750051
1.1788155
1.180839
1.1815596
1.1815214
1.1809597
1.1800827
1.1790371
1.177894
1.1767254
1.1755289
1.1743036
1.1730266
1.1717999
1.1708236
1.1695712
1.1668899
1.1646138
1.163414
1.1629532
1.1628602
1.1637495
1.1650299
0.9905575
0.99952276
1.0142243
1.0411684
1.0472175
1.0508088
1.0488188
1.0514748
1.0510714
1.0536057
1.0544742
1.0573826
1.0595538
1.0632712
1.0669796
1.0720024
1.0776083
1.0844964
1.0923896
1.1015783
1.1118668
1.1231396
1.1349194
1.1465813
1.1573132
1.1664359
1.1736113
1.1787887
1.1818717
1.1832129
1.18345
1.1829823
1.1820602
1.1808954
1.1796251
1.1783095
1.1770101
1.1757075
1.1743977
1.1730555
1.1718013
1.1708061
1.1694017
1.1665163
1.1643996
1.1633047
1.1629495
1.1628807
1.1637864
1.1656512
0.99300373
1.002385
1.0182109
1.0454563
1.0496721
1.0533197
1.0513591
1.054099
1.053753
1.0563852
1.0573515
1.0603822
1.062704
1.0665852
1.0705073
1.0757593
1.0816515
1.0888489
1.0970945
1.1066418
1.1172774
1.1288258
1.1407441
1.1523312
1.162748
1.1713844
1.1780198
1.1824822
1.1847937
1.1855098
1.1852776
1.1843781
1.183105
1.1816643
1.1801799
1.1787004
1.1772757
1.1758709
1.1744879
1.1730684
1.1718023
1.1707723
1.1691823
1.1661719
1.1642289
1.1632635
1.1629477
1.1629445
1.1639265
1.1657276
0.99571595
1.0054874
1.0225588
1.0497812
1.0523129
1.0560218
1.0540889
1.0569081
1.056622
1.0593524
1.0604227
1.0635793
1.0660604
1.0701132
1.0742616
1.0797564
1.0859508
1.093473
1.1020835
1.111996
1.1229737
1.1347738
1.1467799
1.1582171
1.1682472
1.1763706
1.1823919
1.1860459
1.1875797
1.1877535
1.1870197
1.1857014
1.1840913
1.1823872
1.1806998
1.1790655
1.1775211
1.1760186
1.1745769
1.1730726
1.1718009
1.1707138
1.1688863
1.1658735
1.1640997
1.1632571
1.1629634
1.1630657
1.164128
1.1653418
0.9986343
1.0087637
1.0271895
1.0540762
1.0550963
1.0588828
1.0569814
1.0598884
1.0596681
1.0625013
1.0636823
1.0669699
1.0696211
1.0738559
1.0782456
1.0839988
1.0905115
1.0983736
1.1073602
1.1176421
1.1289525
1.1409724
1.1530045
1.1642114
1.173795
1.1813842
1.1866623
1.1894448
1.1902757
1.1899058
1.1886729
1.1869488
1.1850161
1.1830622
1.1811838
1.1794035
1.1777454
1.1761526
1.174639
1.1730734
1.1717978
1.1706256
1.1685096
1.1656151
1.1639802
1.1632575
1.163007
1.1632724
1.1643575
1.165244
1.0017781
1.0122145
1.0320912
1.0583352
1.0580353
1.0619173
1.0600455
1.0630415
1.0628895
1.065828
1.0671274
1.0705532
1.0733884
1.0778181
1.0824655
1.0884928
1.0953401
1.1035567
1.1129291
1.1235819
1.1352095
1.147407
1.1593921
1.1702887
1.1793827
1.18637
1.190783
1.1926815
1.1928939
1.1919485
1.1902305
1.188117
1.1858776
1.1836883
1.1816311
1.1797136
1.1779486
1.1762802
1.174659
1.173074
1.1717928
1.1705072
1.1680947
1.1653678
1.1638622
1.1632556
1.1630733
1.1640087
1.1646071
1.1653574
1.0051731
1.015873
1.0372548
1.0625379
1.0611345
1.0651073
1.0632709
1.0663543
1.0662788
1.0693285
1.0707597
1.0743346
1.0773699
1.0820078
1.0869289
1.0932459
1.1004431
1.1090278
1.1187939
1.1298154
1.1417374
1.1540589
1.1659153
1.1764279
1.1850028
1.1912572
1.1947131
1.195802
1.1953975
1.1938761
1.1916894
1.1892041
1.1866747
1.1842649
1.1820414
1.1799952
1.1781313
1.176407
1.1746651
1.1730726
1.1717833
1.1703577
1.1676473
1.1651512
1.1638232
1.1633032
1.1631721
1.1644167
1.1651133
1.1654859
1.0087693
1.0197107
1.0426082
1.0666518
1.0643734
1.068443
1.0666484
1.0698296
1.0698417
1.0730138
1.0745912
1.0783257
1.0815754
1.0864336
1.0916433
1.0982653
1.1058277
1.1147932
1.124959
1.1363422
1.1485263
1.1609054
1.1725471
1.1826132
1.1906187
1.1959834
1.1984431
1.198827
1.1977636
1.1956832
1.193047
1.1902089
1.1874072
1.1847923
1.1824146
1.1802486
1.1782958
1.1765053
1.1746659
1.1730662
1.1717632
1.1701683
1.1671942
1.1649532
1.1638063
1.1633805
1.1633034
1.1642127
1.1656827
1.165618
1.0125778
1.023764
1.0481205
1.0707148
1.0677738
1.0719425
1.0701993
1.0734872
1.0735979
1.0768997
1.0786351
1.0825358
1.0860126
1.0911022
1.0966156
1.1035586
1.111501
1.1208591
1.1314276
1.1431594
1.1555614
1.16792
1.1792631
1.1888351
1.1961547
1.2005046
1.2020182
1.2017162
1.199988
1.1973664
1.1943021
1.1911313
1.1880756
1.185271
1.1827503
1.1804749
1.1784482
1.1765386
1.1746634
1.1730544
1.1717226
1.1699137
1.1667721
1.1647716
1.1637963
1.1634761
1.1634503
1.1642839
1.1655337
1.1658093
1.0166463
1.0280892
1.0537717
1.0747781
1.07136
1.0756299
1.0739469
1.0773463
1.0775609
1.0809948
1.082897
1.0869694
1.0906859
1.0960198
1.1018531
1.1091336
1.1174708
1.1272319
1.1382028
1.1502613
1.1628241
1.1750749
1.186042
1.1950782
1.2015308
1.2047869
1.2054814
1.2044384
1.2020646
1.1989242
1.1954545
1.1919725
1.1886813
1.1857014
1.1830481
1.1806763
1.178596
1.1765516
1.1746484
1.1730377
1.171651
1.1695617
1.1664262
1.1646113
1.1637963
1.1635581
1.1636002
1.1644055
1.1655329
1.166311
1.0209757
1.0327222
1.059536
1.0788933
1.0751498
1.0795247
1.0778961
1.0814076
1.0817304
1.0852968
1.0873768
1.0916293
1.0956011
1.1011942
1.1073647
1.115
1.1237455
1.1339181
1.1452859
1.1576385
1.170291
1.1823435
1.1928659
1.2012738
1.2066964
1.2088713
1.2087888
1.2069902
1.2039907
1.2003559
1.1965055
1.1927341
1.1892252
1.1860829
1.1833088
1.1808562
1.1787271
1.1765535
1.174627
1.1730177
1.1715423
1.1691228
1.1661647
1.1645283
1.1638231
1.1636187
1.1637176
1.1645706
1.1656609
1.1663217
1.0255422
1.0376882
1.0653837
1.0831387
1.0791334
1.0836091
1.0820344
1.0856567
1.0860991
1.0898048
1.0920784
1.0965225
1.1007665
1.106635
1.1131603
1.1211671
1.130334
1.1409239
1.152676
1.1652773
1.1779359
1.1897012
1.1997212
1.2073398
1.2116008
1.2128021
1.2119105
1.2093648
1.2057648
1.2016628
1.1974572
1.1934178
1.1897068
1.1864149
1.1835358
1.1810213
1.1787833
1.1765535
1.1745995
1.1729939
1.1713917
1.1686409
1.1659471
1.1644958
1.1638654
1.1636931
1.1637944
1.164773
1.165842
1.1660506
1.0302992
1.0429636
1.0712343
1.0875622
1.0832658
1.0878543
1.0863514
1.0900958
1.0906733
1.0945283
1.0970116
1.1016588
1.1061922
1.112353
1.1192509
1.1276459
1.1372452
1.1482543
1.1603687
1.1731585
1.1857308
1.1971249
1.2065753
1.2131963
1.2162517
1.2165694
1.2148282
1.2115599
1.2073875
1.2028471
1.1983118
1.1940236
1.1901247
1.1866985
1.183736
1.181179
1.1788062
1.1765389
1.174567
1.1729602
1.1711876
1.1681372
1.1657486
1.1644905
1.1639399
1.1637979
1.1639203
1.1650342
1.1659955
1.1660675
1.0352575
1.0485788
1.0770795
1.0919063
1.0875889
1.0922961
1.0908731
1.094745
1.0954691
1.0994783
1.1021866
1.1070488
1.1118891
1.1183599
1.1256482
1.1344473
1.1444883
1.1559128
1.1683554
1.1812583
1.1936483
1.2045938
1.2133419
1.2187907
1.2206913
1.2201347
1.2175384
1.2135741
1.2088608
1.203912
1.1990709
1.1945504
1.1904798
1.1869407
1.1839192
1.1813169
1.1788115
1.1765131
1.1745306
1.1729057
1.1709032
1.1676629
1.1655699
1.1644918
1.1640425
1.1639219
1.1641738
1.1654152
1.1661068
1.1661578
1.0404689
1.0545851
1.0829485
1.0964142
1.0921216
1.0969458
1.0956106
1.0996085
1.1004929
1.1046627
1.1076131
1.1127036
1.1178696
1.1246688
1.1323646
1.1415828
1.1520718
1.1639003
1.1766222
1.1895494
1.2016617
1.2120878
1.2199308
1.2240818
1.2249602
1.2234615
1.2200371
1.2154088
1.2101883
1.2048606
1.199735
1.1949994
1.1907804
1.1871563
1.1840926
1.1813749
1.178813
1.1764777
1.1744928
1.1728204
1.1705049
1.1672765
1.1654376
1.1645274
1.1641472
1.1640507
1.1645437
1.1661231
1.1662154
1.1662548
1.0459001
1.0609442
1.0888044
1.101198
1.0968521
1.1017988
1.1005614
1.1046922
1.1057532
1.1100927
1.1133032
1.1186366
1.1241472
1.1312936
1.1394136
1.1490642
1.1600033
1.1722138
1.1851503
1.198003
1.2097431
1.2195502
1.2262631
1.2291051
1.2290093
1.226549
1.2223237
1.2170671
1.2113738
1.2056945
1.2003054
1.1953792
1.1910443
1.18736
1.1842461
1.1813994
1.1788048
1.1764347
1.1744566
1.1727011
1.1700171
1.16699
1.1653476
1.164586
1.1642549
1.1642323
1.1650129
1.1661524
1.1665869
1.1663588
1.0515582
1.0676476
1.0946495
1.1061548
1.1017902
1.106865
1.1057407
1.1100102
1.111263
1.1157812
1.1192704
1.1248621
1.1307366
1.138249
1.1468088
1.1569035
1.1682884
1.1808449
1.1939152
1.2065912
1.2178686
1.2268844
1.2322761
1.2339089
1.2328026
1.2293906
1.2243998
1.2185535
1.2124209
1.2064153
1.2007881
1.1957087
1.1912893
1.187545
1.1843244
1.1814054
1.1787795
1.1763865
1.1744212
1.1725425
1.1695135
1.1667537
1.1652944
1.1646478
1.16439
1.164914
1.1654402
1.1661525
1.1667715
1.1665653
1.0575032
1.0746899
1.1005202
1.1113147
1.1069592
1.1121626
1.1111599
1.1155737
1.1170352
1.1217414
1.1255286
1.1313952
1.1376527
1.1455502
1.1545647
1.1651118
1.1769294
1.1897794
1.2028874
1.215284
1.2260104
1.2339897
1.2379564
1.2384898
1.2363169
1.2319863
1.2262692
1.2198728
1.2133325
1.2070272
1.2011982
1.1960079
1.1915069
1.1876575
1.1843592
1.1814066
1.1787406
1.1763341
1.1743778
1.1723199
1.1690163
1.1665556
1.1652826
1.1647355
1.1645632
1.1651275
1.1657806
1.1662481
1.1666879
1.1669071
1.0637381
1.0820508
1.1064578
1.1166786
1.1123604
1.1176984
1.1168301
1.1213934
1.1230834
1.1279878
1.1320931
1.1382518
1.1449117
1.1532132
1.1626959
1.1736993
1.1859241
1.1989975
1.2120365
1.2240471
1.2340869
1.2407885
1.243344
1.2428011
1.2395502
1.2343372
1.2279371
1.2210291
1.2141121
1.2075426
1.2015568
1.1962721
1.1916324
1.187708
1.1843714
1.181396
1.1786894
1.1762781
1.1743097
1.1719964
1.1685549
1.166379
1.1652883
1.164856
1.1647254
1.1650539
1.1660302
1.1663513
1.1667492
1.1667903
1.0701916
1.0896878
1.1124954
1.122272
1.1180032
1.1234821
1.1227657
1.1274843
1.1294225
1.1345358
1.1389794
1.1454492
1.1525311
1.1612558
1.1712178
1.1826738
1.1952644
1.208473
1.2213313
1.2328479
1.2419872
1.2472093
1.2485018
1.2467955
1.2424993
1.2364477
1.2294092
1.2220262
1.2147685
1.2079835
1.2018763
1.1964393
1.1916884
1.1877287
1.1843776
1.1813682
1.1786294
1.1762189
1.1741973
1.17154
1.1681708
1.1662377
1.1653248
1.1649915
1.1648846
1.1652019
1.1661797
1.1664757
1.1668322
1.16671
1.0769369
1.0976178
1.1186394
1.1281122
1.1239057
1.1295288
1.1289836
1.1338606
1.1360674
1.1414011
1.1462049
1.1530063
1.1605306
1.1696969
1.1801455
1.192039
1.2049354
1.218175
1.230738
1.2416475
1.2495963
1.2532792
1.2533715
1.2504705
1.2451661
1.2383238
1.2306907
1.2228709
1.2153193
1.208371
1.2021297
1.196512
1.1917098
1.187739
1.1843747
1.181326
1.1785636
1.1761573
1.1740305
1.170991
1.1678803
1.1661788
1.1654103
1.1651482
1.1650749
1.1654678
1.1662848
1.1666407
1.1669003
1.166776
1.0839315
1.1058515
1.1249542
1.1342207
1.1300842
1.1358525
1.1354924
1.1405355
1.1430331
1.1486022
1.1537899
1.1609454
1.1689317
1.1785561
1.1894918
1.2017931
1.2149148
1.2280695
1.2402146
1.2503325
1.2568359
1.2590415
1.2579117
1.2538202
1.2475546
1.2399718
1.2317884
1.2235778
1.2157899
1.2086983
1.2022436
1.1965394
1.191718
1.1877385
1.1843528
1.1812702
1.1784945
1.1760907
1.173805
1.1704319
1.1676451
1.1661557
1.1655112
1.165311
1.1652738
1.1657364
1.1664038
1.1668236
1.1669738
1.1668374
1.0912385
1.1144526
1.1314465
1.1405977
1.1365494
1.1424594
1.1423117
1.1475248
1.1503404
1.1561626
1.1617591
1.1692915
1.177758
1.1878533
1.1992663
1.2119265
1.2251736
1.2381203
1.249719
1.2587842
1.2636587
1.2645179
1.2620831
1.2568461
1.2496711
1.2413988
1.2327127
1.2241724
1.2161966
1.208897
1.202292
1.196548
1.1917048
1.187716
1.1843159
1.1812032
1.1784228
1.1760098
1.1735109
1.1699045
1.1674447
1.1661454
1.1656083
1.1654512
1.1654354
1.1659676
1.1665844
1.1671417
1.1671287
1.1669199
1.0986699
1.1232238
1.1381289
1.1472252
1.1433
1.1493695
1.1494547
1.1548558
1.1580165
1.1641107
1.17014
1.1780721
1.187034
1.197607
1.2094736
1.222422
1.2356764
1.2482835
1.2591824
1.266879
1.2700992
1.2696444
1.2658871
1.2595513
1.2515232
1.2426138
1.2334825
1.2246802
1.2165144
1.2089844
1.2023075
1.1965293
1.1916653
1.1876759
1.1842641
1.1811272
1.1783476
1.1758967
1.1731138
1.1694504
1.1672782
1.1661465
1.1656882
1.1655599
1.1655748
1.1662143
1.166938
1.1672777
1.1674185
1.1671168
1.1063572
1.1322921
1.1450936
1.1541856
1.1503909
1.1566184
1.1569651
1.1625574
1.1660926
1.1724765
1.178962
1.1873151
1.1967839
1.2078317
1.2201091
1.2332525
1.2463839
1.2585071
1.2684669
1.274529
1.2762199
1.2743676
1.2693196
1.2619425
1.2531198
1.243632
1.2341255
1.2251006
1.2166626
1.2090165
1.202298
1.1964765
1.1916026
1.1876185
1.1842003
1.1810453
1.1782679
1.1757333
1.1725846
1.1691107
1.167144
1.166155
1.1657644
1.1656584
1.1657397
1.1667276
1.1671541
1.1672317
1.167375
1.1673322
1.1142876
1.1417244
1.152316
1.1614746
1.1578337
1.1642291
1.164864
1.1706601
1.1745988
1.1812929
1.188256
1.1970501
1.2070302
1.218536
1.2311594
1.2443825
1.2572502
1.268733
1.2774362
1.2817306
1.2819742
1.2786729
1.2723845
1.2640282
1.254473
1.2444772
1.2346674
1.2253696
1.2167228
1.2090185
1.202244
1.1963943
1.1915185
1.1875465
1.1841266
1.1809608
1.1781833
1.1755115
1.1720273
1.168817
1.1670419
1.1661774
1.165846
1.1657527
1.1659673
1.1668023
1.1671275
1.1672543
1.1673774
1.1672501
1.1224993
1.1516069
1.1598669
1.1691401
1.1656734
1.1722378
1.1731908
1.1791967
1.1835695
1.190595
1.1980542
1.2073047
1.2177913
1.2297202
1.2426002
1.255768
1.2682161
1.27885
1.2859659
1.288527
1.2873034
1.2825569
1.2750875
1.2658196
1.2556021
1.2451786
1.2351004
1.2254918
1.2167411
1.208975
1.2021547
1.1962846
1.1914158
1.1874616
1.1840457
1.180876
1.1780916
1.1752312
1.1714676
1.1685564
1.1669671
1.1662149
1.1659394
1.1658602
1.1662246
1.1667821
1.167145
1.1673245
1.1674073
1.1672702
1.1310406
1.1619037
1.1677763
1.1772008
1.1739316
1.1806699
1.1819793
1.1882035
1.1930411
1.20042
1.208389
1.2181047
1.2290797
1.2413748
1.2543973
1.2673606
1.2792136
1.2887016
1.2939831
1.2949508
1.2921556
1.2860206
1.2774387
1.2673327
1.2565357
1.2457563
1.2353333
1.2255379
1.2167168
1.2088872
1.2020309
1.1961509
1.1912966
1.1873658
1.1839599
1.1807915
1.1779835
1.1748874
1.1709419
1.1683245
1.1669135
1.1662689
1.166049
1.165986
1.1664595
1.1668506
1.1671996
1.1674076
1.1674505
1.1673192
1.1399149
1.1726322
1.1760675
1.1856785
1.1826463
1.1895605
1.1912715
1.1977257
1.2030542
1.2108053
1.2192907
1.2294718
1.2409005
1.253479
1.2665062
1.2791002
1.2901618
1.2981244
1.3015175
1.3009158
1.2965328
1.2890693
1.2794515
1.2685905
1.2573047
1.2461898
1.235433
1.2255379
1.2166361
1.2087592
1.2018776
1.1959962
1.1911631
1.1872611
1.1838718
1.1807052
1.1778402
1.1744508
1.1704836
1.1681343
1.1668913
1.1663363
1.1661637
1.1661174
1.166636
1.1669675
1.1672873
1.1674775
1.1675092
1.1673835
1.1491608
1.1837143
1.1848018
1.1946276
1.1918781
1.1989602
1.2011157
1.2078072
1.2136453
1.2217831
1.2307858
1.2414213
1.2532479
1.2659992
1.2788714
1.2909058
1.3008828
1.3070016
1.3086347
1.3063553
1.3004297
1.2917135
1.2811451
1.2696243
1.2579239
1.2464076
1.2354668
1.2254757
1.2165091
1.2085951
1.201698
1.1958231
1.1910175
1.1871498
1.1837841
1.1806158
1.1776406
1.1738908
1.1701306
1.1679891
1.1668895
1.1664063
1.1662683
1.1662374
1.166767
1.1670951
1.1673908
1.16755
1.1676213
1.1674751
1.1589016
1.1952138
1.1940719
1.2041068
1.2016753
1.2089122
1.2115494
1.218484
1.2248437
1.2333837
1.2428981
1.253962
1.2661038
1.2788877
1.2914248
1.3026828
1.3112052
1.3153289
1.315258
1.3112548
1.3038523
1.2939691
1.2825466
1.2704668
1.2583544
1.246497
1.235443
1.225356
1.2163388
1.2083997
1.2014956
1.1956344
1.1908617
1.1870343
1.1837002
1.1805245
1.1773808
1.1733123
1.1698284
1.1678765
1.1668961
1.1664763
1.1663625
1.1663438
1.1668801
1.1672162
1.1674826
1.1676446
1.1677344
1.1676362
1.1692528
1.2071484
1.2039034
1.2141427
1.2120748
1.2194461
1.2226002
1.2297869
1.2366807
1.2456393
1.2556512
1.2670943
1.2794357
1.2920819
1.3040755
1.3142793
1.3209639
1.3231508
1.3213108
1.3156089
1.3068108
1.2958592
1.2836908
1.2711317
1.2585692
1.2465179
1.2353433
1.2251853
1.2161315
1.2081771
1.2012736
1.1954323
1.1906978
1.1869172
1.1836232
1.1804316
1.177063
1.172727
1.1695616
1.1677885
1.1669191
1.1665551
1.1664521
1.1664473
1.1669908
1.1673399
1.1675983
1.167734
1.1677171
1.1676213
1.1802776
1.2194621
1.2143371
1.2247486
1.2231011
1.2305897
1.2342993
1.2417584
1.2491988
1.2585877
1.2690642
1.2808038
1.2931926
1.3055033
1.3167119
1.3254916
1.3300986
1.3304465
1.3267478
1.3194207
1.3093234
1.2974153
1.284613
1.2715671
1.2586561
1.2464624
1.2351832
1.2249698
1.2158923
1.2079313
1.2010351
1.1952191
1.1905276
1.1868011
1.1835539
1.1803269
1.1766747
1.1721643
1.1693129
1.1677251
1.1669626
1.166645
1.1665571
1.1665767
1.1671217
1.1675003
1.1676955
1.1677547
1.1677327
1.1676309
1.1920652
1.2320491
1.2253881
1.2359222
1.2347679
1.2423801
1.2467005
1.2544659
1.2624549
1.2722653
1.2831429
1.2950552
1.3073015
1.3190486
1.32919
1.3361161
1.3386401
1.3371098
1.3315667
1.322701
1.3114173
1.2986758
1.2853277
1.2717815
1.258662
1.2463273
1.2349678
1.2247163
1.2156261
1.2076662
1.2007828
1.1949969
1.1903533
1.1866885
1.1834901
1.1801862
1.1761793
1.1716829
1.1690932
1.1676787
1.1670126
1.1667396
1.166681
1.1667342
1.1672684
1.1675655
1.1677162
1.1677733
1.1677613
1.167661
1.2047216
1.2447537
1.2370852
1.2477086
1.2471352
1.2548917
1.2598768
1.2679858
1.2765057
1.286696
1.2978691
1.3097873
1.3216668
1.3325806
1.3412713
1.3460437
1.3466025
1.3430752
1.3357656
1.3254717
1.3131314
1.2996789
1.2857722
1.2718663
1.2585758
1.2461261
1.2347061
1.2244307
1.2153376
1.2073852
1.2005193
1.1947675
1.1901771
1.1865817
1.1834283
1.1799828
1.1755675
1.1713123
1.168912
1.1676464
1.1670704
1.1668402
1.1667901
1.1669332
1.1673732
1.1676135
1.1677466
1.1678003
1.167793
1.1676954
1.2184031
1.2575658
1.2495976
1.2602933
1.260384
1.2682563
1.2738942
1.2823636
1.2913829
1.3018788
1.3131953
1.3249073
1.3361618
1.3459371
1.3527215
1.3552932
1.3538504
1.3483389
1.3393574
1.3277656
1.3145098
1.3004415
1.2859857
1.2718559
1.2584052
1.2458668
1.2344053
1.2241188
1.2150312
1.2070918
1.2002471
1.1945327
1.1900013
1.186483
1.1833681
1.1797138
1.1749554
1.1709868
1.1687733
1.1676398
1.1671325
1.1669344
1.166885
1.1670977
1.1674489
1.1676701
1.1677845
1.1678371
1.1678347
1.1677488
1.2333826
1.2709355
1.2631524
1.2738341
1.2747276
1.2826432
1.2888372
1.2976351
1.3070919
1.3177802
1.3290374
1.34029
1.3506143
1.3588461
1.3633951
1.3638808
1.3603052
1.3528952
1.3423686
1.3296281
1.315589
1.3008932
1.2860668
1.271739
1.2581633
1.2455596
1.2340729
1.2237861
1.214711
1.2067892
1.1999684
1.1942943
1.189828
1.1863948
1.1833108
1.1793856
1.1743504
1.1706986
1.1686649
1.167646
1.167197
1.1670223
1.1669733
1.1672108
1.1675313
1.1677185
1.1678237
1.1678807
1.1678897
1.1678072
1.2496219
1.2850208
1.2778484
1.2883415
1.2900377
1.2980252
1.304857
1.3138997
1.3236322
1.3343215
1.3452681
1.355772
1.3648257
1.3710433
1.373302
1.3716458
1.3659593
1.3567591
1.3448395
1.3311099
1.3163747
1.3011027
1.286037
1.2715324
1.2578612
1.2452133
1.2337154
1.2234375
1.2143808
1.2064803
1.1996854
1.1940538
1.1896594
1.1863183
1.1832538
1.1789934
1.1737776
1.1704333
1.1685772
1.167658
1.1672629
1.16711
1.1670651
1.1673214
1.167601
1.1677816
1.1678821
1.1679226
1.1679045
1.1678255
1.2670209
1.3003424
1.2936053
1.3038672