/*--------------------------------*- C++ -*----------------------------------*\
  =========                 |
  \\      /  F ield         | OpenFOAM: The Open Source CFD Toolbox
   \\    /   O peration     | Website:  https://openfoam.org
    \\  /    A nd           | Version:  8
     \\/     M anipulation  |
\*---------------------------------------------------------------------------*/
FoamFile
{
    version     2.0;
    format      ascii;
    class       surfaceVectorField;
    location    "0.199992";
    object      rhoUf;
}
// * * * * * * * * * * * * * * * * * * * * * * * * * * * * * * * * * * * * * //

dimensions      [1 -2 -1 0 0 0 0];

internalField   nonuniform List<vector> 
39600
(
(212.89135 4.0480232e-22 -7.8967696)
(196.97049 0 -7.9447131)
(195.8068 1.3934463e-16 -7.1351346)
(243.22395 -1.6807794e-19 -9.1293007)
(232.74891 4.3705237e-22 -9.0863345)
(231.40239 -3.1310118e-22 -8.1357461)
(266.28877 -2.0202813e-19 -10.126807)
(256.95066 9.0269992e-21 -10.218298)
(255.40879 -1.9330988e-19 -9.1437806)
(287.96053 -2.5498563e-19 -11.118765)
(278.83005 0 -11.187131)
(277.11562 2.194778e-21 -10.041947)
(308.69746 -3.0565655e-19 -12.139485)
(300.45172 8.9867466e-21 -12.363962)
(298.50499 -2.9019244e-19 -11.093403)
(320.83692 0 -12.769212)
(319.9177 -6.2894646e-17 -13.168174)
(318.74899 5.4229587e-17 -11.90077)
(323.11994 3.9304482e-17 -12.862565)
(322.37201 5.3319991e-17 -13.731413)
(322.38602 2.15127e-20 -12.462555)
(323.35184 1.4394812e-17 -12.869172)
(323.91589 4.2701207e-17 -13.085163)
(323.93008 6.2132499e-18 -11.87082)
(322.97116 -3.926823e-17 -12.852028)
(322.6161 -3.5573141e-17 -13.961488)
(322.63657 -3.7599076e-17 -12.677295)
(323.01095 2.2738228e-17 -12.858982)
(323.36482 0 -12.965312)
(323.34035 0 -11.748728)
(322.75302 -2.9487492e-17 -12.85755)
(322.59139 5.2048403e-17 -13.996271)
(322.57199 2.6025456e-17 -12.720757)
(322.69715 -6.0519769e-18 -12.8687)
(322.95469 -8.5795541e-17 -13.032964)
(322.91354 -6.4847465e-17 -11.803694)
(322.45925 4.8340389e-17 -12.878225)
(322.42416 6.8635449e-17 -13.915611)
(322.38635 7.0724989e-17 -12.649918)
(322.32445 -3.1348022e-17 -12.893871)
(322.52567 1.2206375e-18 -13.188022)
(322.48032 -2.9790852e-17 -11.944863)
(322.07961 1.6180005e-17 -12.911798)
(322.12692 -2.4542071e-17 -13.811375)
(322.08399 1.4619664e-20 -12.551992)
(321.8657 3.8250206e-18 -12.930958)
(322.05236 1.9969508e-17 -13.356188)
(322.009 1.7989704e-17 -12.105525)
(321.56836 -5.8569601e-18 -12.950324)
(321.68198 -1.6747543e-17 -13.72883)
(321.64356 -8.8078747e-18 -12.479558)
(321.25759 -8.3853604e-18 -12.961897)
(321.45158 2.0967145e-17 -13.482921)
(321.42077 1.4540797e-17 -12.240656)
(320.87178 -1.5419101e-17 -12.961772)
(321.03516 -3.4634465e-17 -13.66533)
(321.01567 -3.1539175e-17 -12.432657)
(320.45064 1.5758138e-17 -12.948029)
(320.65845 1.925033e-17 -13.537669)
(320.64622 1.4293032e-17 -12.306586)
(319.96061 0 -12.930962)
(320.13594 1.2058803e-19 -13.607683)
(320.12365 0 -12.371323)
(319.37121 -5.0231409e-18 -12.938719)
(319.57733 -2.7271977e-17 -13.564899)
(319.54597 8.9921261e-19 -12.317934)
(318.64937 2.101758e-18 -12.888817)
(318.9312 -1.1259305e-17 -13.571833)
(318.92134 -8.3837332e-18 -12.335837)
(317.81108 -2.0147654e-18 -12.761113)
(318.18403 3.6983357e-17 -13.447598)
(318.19664 1.1110207e-17 -12.240442)
(316.85577 -1.3270647e-17 -12.524648)
(317.28656 -2.8557966e-17 -13.252198)
(317.32545 -1.4400025e-17 -12.091659)
(315.78764 1.0636515e-17 -12.16399)
(316.26741 1.3929086e-18 -12.922648)
(316.32921 -7.2363184e-19 -11.818816)
(314.60786 9.2324576e-18 -11.652858)
(315.12222 -1.0822034e-17 -12.449242)
(315.20678 8.7365237e-18 -11.418837)
(313.34364 -2.2796732e-18 -10.977231)
(313.87833 1.5005809e-17 -11.797544)
(313.98306 1.2599408e-18 -10.859351)
(312.03912 -1.7009547e-17 -10.14448)
(312.57244 -1.365926e-17 -10.971662)
(312.6918 6.5625162e-19 -10.14255)
(310.7509 -5.3458438e-18 -9.191506)
(311.26043 3.2903549e-18 -9.9957139)
(311.3858 -1.9694008e-17 -9.2862131)
(309.53843 5.4136196e-18 -8.1764253)
(310.00235 8.7796362e-17 -8.9275125)
(310.1247 1.7154119e-17 -8.3407779)
(308.4535 -1.8132998e-17 -7.1667988)
(308.85549 4.0536517e-17 -7.8378454)
(308.96711 -4.0152055e-18 -7.3693074)
(307.5323 2.8256703e-17 -6.220101)
(307.86258 -1.2266438e-17 -6.7966994)
(307.95902 1.7948014e-18 -6.4359543)
(306.79356 9.5455354e-17 -5.3778878)
(307.04761 7.5419166e-17 -5.8524873)
(307.12709 2.2981719e-17 -5.5862892)
(306.24164 6.411409e-17 -4.6655895)
(306.42135 1.1734847e-16 -5.0359913)
(306.48405 3.1833866e-17 -4.8485069)
(305.86618 1.5056878e-18 -4.0354025)
(305.97557 1.0089662e-17 -4.3749325)
(306.02966 -4.9595111e-18 -4.2461431)
(305.64709 4.6333849e-17 -3.3947455)
(305.64743 -1.1117378e-18 -3.8362969)
(305.70523 9.8563055e-18 -3.7525083)
(305.49396 3.7749904e-17 -2.9593219)
(305.45286 -1.0909667e-17 -3.3438514)
(305.48808 1.1280792e-17 -3.2989482)
(305.3936 0 -2.7268843)
(305.38201 -1.6661746e-17 -2.8946824)
(305.39421 -2.5769921e-18 -2.8771094)
(305.40419 -1.6063712e-17 -2.3935113)
(305.38135 1.233852e-17 -2.5305828)
(305.40521 2.2208574e-18 -2.5290334)
(305.43653 -4.3792684e-17 -2.0899915)
(305.40658 1.1347948e-19 -2.2222088)
(305.42559 -5.4439787e-18 -2.2307493)
(305.48209 -3.8399142e-17 -1.796956)
(305.4509 1.3480403e-17 -1.9146564)
(305.4666 -7.1374092e-18 -1.9285379)
(305.52582 -1.0919939e-17 -1.5344168)
(305.49888 5.0976996e-21 -1.6385462)
(305.51227 3.4614753e-19 -1.6521343)
(305.55099 -3.7841087e-17 -1.2802548)
(305.53732 -7.2143964e-18 -1.4010121)
(305.54914 2.2077992e-21 -1.4123835)
(305.55048 -5.4345437e-17 -0.94678061)
(305.5465 -2.1106911e-19 -1.1297405)
(305.55638 -6.0356288e-18 -1.1447708)
(305.57128 -3.9833712e-17 -0.53905446)
(305.54544 -7.8972695e-18 -0.70692853)
(305.54187 -1.3110911e-18 -0.73379805)
(305.6231 -4.3090202e-17 -0.080812515)
(305.62487 1.0415031e-16 -0.2362663)
(305.62697 -5.2667251e-18 -0.26177432)
(305.57646 -5.0605739e-18 0.25940119)
(305.62973 6.9607539e-17 0.10914534)
(305.62393 1.6501965e-18 0.09723139)
(305.36107 1.5116992e-19 0.20612639)
(305.56534 -3.3321449e-18 0.44008334)
(305.54965 2.3266113e-22 0.43489125)
(305.23341 4.9539606e-19 0.8566775)
(305.25179 -3.1680551e-18 0.8775157)
(213.85067 0 -8.7682268)
(198.27386 0 -8.7837784)
(244.3819 1.7249617e-19 -10.111647)
(234.17175 -4.7558551e-19 -10.064301)
(267.60417 2.0675158e-19 -11.193357)
(258.52188 1.8734802e-19 -11.306829)
(289.45629 2.5678005e-19 -12.264482)
(280.53401 0 -12.345087)
(309.99586 -5.622203e-17 -13.344989)
(302.37592 2.7890905e-19 -13.650859)
(321.31704 -1.9857347e-17 -13.965753)
(320.95235 2.6214507e-18 -14.432588)
(323.09536 5.7460469e-17 -14.059645)
(322.44113 -5.6399684e-17 -15.01109)
(323.34796 0 -14.085961)
(323.9851 4.5149834e-17 -14.304474)
(322.97907 0 -14.084644)
(322.65261 3.7677388e-17 -15.262333)
(323.03213 2.4559574e-17 -14.103556)
(323.4147 -3.3277258e-17 -14.197951)
(322.77968 7.8610864e-18 -14.110334)
(322.61875 2.5062139e-17 -15.295605)
(322.73031 -2.4952058e-17 -14.126834)
(322.99091 2.5477416e-17 -14.281046)
(322.49343 2.7932516e-17 -14.139477)
(322.45008 -3.5130198e-17 -15.20601)
(322.36017 9.891551e-18 -14.156757)
(322.55513 5.5542823e-17 -14.449634)
(322.11465 -2.4376855e-17 -14.174603)
(322.15064 -4.9291149e-17 -15.092331)
(321.89929 2.7863522e-18 -14.190465)
(322.07238 -1.8469312e-17 -14.621729)
(321.59887 6.4448687e-18 -14.204353)
(321.69547 1.7414114e-17 -14.9938)
(321.28382 -2.1148644e-19 -14.210145)
(321.45828 2.8850429e-17 -14.741269)
(320.89377 -5.1218573e-18 -14.21009)
(321.03655 -3.2822392e-17 -14.926743)
(320.46209 5.5230508e-18 -14.197475)
(320.65331 1.4958553e-17 -14.815758)
(319.94051 -2.4296811e-17 -14.201048)
(320.14389 1.1807387e-19 -14.897977)
(319.32956 -3.4726766e-17 -14.192971)
(319.58323 -4.0642155e-17 -14.846081)
(318.60437 1.8818881e-17 -14.125265)
(318.91573 1.7238178e-17 -14.821743)
(317.76306 1.662288e-17 -13.948532)
(318.13563 -1.1992341e-18 -14.665118)
(316.80145 -1.6797781e-17 -13.668612)
(317.21699 1.6135504e-17 -14.428584)
(315.71339 -1.8604074e-17 -13.246607)
(316.17313 0 -14.043221)
(314.51281 -7.4850832e-18 -12.655299)
(315.00372 -4.1669124e-17 -13.494196)
(313.23165 6.4407349e-18 -11.880912)
(313.73904 8.5803328e-17 -12.747268)
(311.9174 4.7577054e-18 -10.935538)
(312.41938 -1.3455454e-17 -11.809579)
(310.62859 8.7067973e-17 -9.862154)
(311.1035 2.179295e-17 -10.711941)
(309.42413 1.2706738e-16 -8.7265503)
(309.85175 -9.1293898e-17 -9.5198034)
(308.35349 5.1573797e-17 -7.6027258)
(308.71959 1.2724619e-17 -8.3115394)
(307.44935 2.5543689e-17 -6.5532329)
(307.7461 -1.0815966e-17 -7.1625838)
(306.72785 9.2775105e-17 -5.6229388)
(306.95223 -2.6476876e-17 -6.1237785)
(306.18926 7.4977773e-17 -4.8369469)
(306.34648 -4.0214945e-17 -5.229724)
(305.82764 9.0695954e-18 -4.1100975)
(305.90772 2.9650035e-17 -4.5100284)
(305.60168 -5.617864e-17 -3.4639183)
(305.5876 -1.5019929e-16 -3.9241744)
(305.45201 -6.4385887e-17 -3.0374767)
(305.41793 -4.4502227e-17 -3.3923648)
(305.37267 -7.587062e-18 -2.7385184)
(305.36234 -1.5054653e-16 -2.9177111)
(305.38078 2.9815559e-17 -2.3980946)
(305.35744 -1.859054e-16 -2.5373637)
(305.41612 5.5751403e-17 -2.0854682)
(305.38677 1.8138711e-17 -2.2179865)
(305.46383 5.3327852e-17 -1.7890102)
(305.43491 4.005721e-17 -1.9051681)
(305.50985 4.5399711e-18 -1.5268406)
(305.48547 9.8121202e-18 -1.6289037)
(305.53677 2.9685919e-17 -1.2725968)
(305.52551 -7.2204818e-18 -1.3931379)
(305.54312 4.7232519e-17 -0.93625639)
(305.53697 -1.2664262e-16 -1.1182042)
(305.57935 1.2455772e-16 -0.49560336)
(305.5478 0 -0.6857949)
(305.63201 2.2168403e-16 -0.068938372)
(305.62766 -1.3621583e-16 -0.21679574)
(305.61183 7.9500236e-17 0.26253791)
(305.6351 1.6130447e-18 0.1170375)
(305.37044 -3.4027417e-18 0.26305121)
(305.57796 -1.0489829e-16 0.44070098)
(305.21907 8.0327741e-17 0.82216339)
(215.36714 -4.2835818e-19 -9.6973029)
(199.58603 0 -9.6559548)
(246.0555 -5.1237596e-19 -11.17703)
(235.65976 -1.2411205e-16 -11.078868)
(269.40576 0 -12.365561)
(260.15245 1.0195564e-16 -12.438116)
(291.42408 0 -13.539952)
(282.28265 1.3667524e-18 -13.560105)
(311.60006 5.7549861e-17 -14.695316)
(304.34042 0 -15.006736)
(321.91188 -2.8478381e-17 -15.298387)
(321.8314 -2.6413072e-18 -15.746027)
(323.16661 -7.6306715e-17 -15.368248)
(322.44679 -5.0821691e-17 -16.346153)
(323.39541 8.2523465e-17 -15.388723)
(324.00215 4.1224487e-17 -15.564927)
(323.01409 1.0717325e-17 -15.3805)
(322.64369 7.5070454e-17 -16.599055)
(323.06311 -3.7345678e-17 -15.395917)
(323.43059 -5.8349837e-17 -15.461046)
(322.80251 4.2246332e-17 -15.399045)
(322.61648 5.1522552e-17 -16.620358)
(322.75219 2.0276481e-17 -15.412647)
(322.99931 9.2211299e-19 -15.554034)
(322.51264 -1.5305737e-17 -15.424342)
(322.45445 -3.9990075e-17 -16.517359)
(322.37779 5.9826919e-18 -15.440889)
(322.56363 2.9701172e-17 -15.731814)
(322.12877 -4.5971322e-17 -15.456567)
(322.15152 -2.4556789e-17 -16.388599)
(321.90965 -7.0291506e-18 -15.466842)
(322.06551 -2.0520458e-17 -15.904987)
(321.60614 3.8400636e-17 -15.47823)
(321.68695 8.164292e-18 -16.280147)
(321.29442 1.9435243e-18 -15.479748)
(321.44057 2.1347016e-17 -16.034377)
(320.91336 -1.7092014e-17 -15.492791)
(321.02724 1.0100328e-18 -16.233877)
(320.47393 1.0884808e-17 -15.507804)
(320.64726 -3.4311949e-19 -16.138932)
(319.9306 -1.2475247e-17 -15.508386)
(320.13107 1.6986354e-17 -16.218169)
(319.28845 5.3910309e-18 -15.478544)
(319.5603 5.1491143e-19 -16.14561)
(318.54169 -8.1769091e-19 -15.362954)
(318.86147 -9.2564826e-19 -16.087344)
(317.68707 -3.1753187e-18 -15.155586)
(318.05792 2.0178014e-17 -15.90018)
(316.69884 3.4050446e-17 -14.827027)
(317.11511 -1.2143994e-18 -15.62136)
(315.58517 -1.8932326e-17 -14.338002)
(316.04424 -1.3201104e-17 -15.175394)
(314.36089 3.8480871e-17 -13.659387)
(314.84906 4.3627068e-17 -14.544533)
(313.06199 7.5410568e-17 -12.779074)
(313.56326 -2.8393403e-17 -13.695643)
(311.73926 0 -11.714592)
(312.23114 1.2758513e-16 -12.639901)
(310.4529 -1.433404e-16 -10.516197)
(310.91411 7.9697327e-17 -11.415796)
(309.26089 -2.1437693e-16 -9.2577758)
(309.67255 -7.7484025e-17 -10.097081)
(308.20976 -4.65973e-17 -8.0196892)
(308.55947 -4.1884508e-17 -8.7697717)
(307.32852 -6.0710446e-17 -6.8689633)
(307.60987 0 -7.5140472)
(306.6306 -1.568292e-16 -5.8538032)
(306.84142 -6.7699016e-17 -6.3825492)
(306.10884 -9.2510436e-17 -4.9974803)
(306.26 -9.0970346e-17 -5.4153655)
(305.76658 -1.083979e-16 -4.1916047)
(305.82823 9.9331991e-18 -4.6390221)
(305.54813 -1.4999104e-16 -3.5401042)
(305.52564 -1.3351339e-17 -4.0046745)
(305.41284 -1.1864691e-16 -3.0967262)
(305.3802 0 -3.4346185)
(305.34969 -3.2424443e-16 -2.7509145)
(305.33741 1.2138065e-18 -2.9376098)
(305.35837 -2.2023959e-16 -2.398513)
(305.33285 2.0028929e-16 -2.5422712)
(305.3985 0 -2.0768378)
(305.36629 -1.8282692e-17 -2.2113341)
(305.44996 0 -1.7776362)
(305.41868 2.145954e-16 -1.8937579)
(305.49817 0 -1.5160188)
(305.47205 7.7497696e-21 -1.6178503)
(305.52703 -1.5028292e-16 -1.2601885)
(305.51366 2.3719709e-16 -1.3834904)
(305.53934 -1.8841726e-16 -0.92017091)
(305.52808 1.6746711e-16 -1.1022979)
(305.58381 -2.4683392e-16 -0.47338091)
(305.55388 -2.4754753e-16 -0.66188117)
(305.63305 -3.7371528e-16 -0.058207789)
(305.63266 -2.7291261e-16 -0.19720583)
(305.61284 -1.7292044e-16 0.26631279)
(305.64034 -7.8355794e-17 0.12477308)
(305.38013 -4.0423591e-17 0.3097418)
(305.58601 3.2781684e-18 0.44003585)
(305.20802 -2.4096784e-19 0.79027878)
(216.70343 -1.1138061e-16 -10.6375)
(200.87454 1.7291263e-16 -10.548773)
(247.54192 -4.1561159e-17 -12.248742)
(237.10507 -1.207305e-16 -12.112489)
(271.02524 1.1108162e-16 -13.539062)
(261.74763 -4.423585e-18 -13.589831)
(293.20379 1.4727033e-18 -14.811699)
(283.99694 1.7849346e-16 -14.794523)
(312.98767 -5.857002e-17 -16.027827)
(306.24593 -7.6119288e-17 -16.383518)
(322.32657 -2.0715569e-17 -16.6091)
(322.57234 -6.5701419e-17 -17.056868)
(323.15306 5.6796134e-17 -16.662257)
(322.43243 5.3796958e-17 -17.692237)
(323.38539 3.1309133e-17 -16.686883)
(324.01559 4.6749751e-17 -16.833153)
(323.00432 1.8039739e-17 -16.679625)
(322.62297 -1.4614779e-18 -17.950292)
(323.05977 1.9858673e-17 -16.69834)
(323.43633 -2.5253387e-17 -16.737998)
(322.79563 1.514198e-17 -16.702972)
(322.60017 5.1890779e-17 -17.961785)
(322.74917 -5.4755812e-17 -16.714895)
(322.98192 -4.5850062e-17 -16.845347)
(322.51153 -1.5175422e-18 -16.727537)
(322.44009 9.5393637e-18 -17.847876)
(322.37564 4.1432977e-18 -16.741902)
(322.54759 1.1546198e-17 -17.032113)
(322.12326 0 -16.757185)
(322.13182 -1.3036185e-17 -17.703414)
(321.9039 -7.9559043e-18 -16.764553)
(322.034 4.3289145e-17 -17.215217)
(321.60903 -9.5790135e-18 -16.776478)
(321.65621 -1.7634422e-17 -17.606721)
(321.29893 2.2077455e-17 -16.804399)
(321.4257 0 -17.377431)
(320.89839 1.7504373e-17 -16.83453)
(321.01151 1.1629887e-17 -17.583682)
(320.43108 4.1963423e-18 -16.848337)
(320.6211 -2.0325486e-17 -17.488237)
(319.86463 3.1094182e-17 -16.831891)
(320.08962 -6.3305763e-19 -17.550356)
(319.21637 -5.5565095e-18 -16.761219)
(319.49706 1.3876521e-17 -17.457089)
(318.46281 1.7861018e-17 -16.623257)
(318.77827 -3.4726476e-17 -17.371963)
(317.58304 2.3955609e-17 -16.38077)
(317.94936 -1.6841364e-18 -17.154795)
(316.5698 -4.6561878e-17 -15.999808)
(316.97938 1.0751971e-18 -16.82905)
(315.42881 4.3198774e-17 -15.438495)
(315.87928 5.388897e-17 -16.317244)
(314.18036 -1.5620503e-17 -14.666575)
(314.65691 1.5108755e-16 -15.598077)
(312.86444 8.5144532e-18 -13.67452)
(313.35002 -5.0320427e-17 -14.640581)
(311.53528 2.107025e-16 -12.486065)
(312.00716 2.5007297e-17 -13.460981)
(310.25451 1.5993208e-16 -11.159543)
(310.69215 -1.3665997e-17 -12.106321)
(309.07875 8.9448157e-17 -9.7770906)
(309.46496 6.2016439e-17 -10.659146)
(308.0511 0 -8.4251802)
(308.37554 -8.6896344e-17 -9.2129651)
(307.19642 0 -7.1747898)
(307.45438 -1.1245642e-17 -7.8519044)
(306.52535 0 -6.0770191)
(306.71571 1.395741e-16 -6.6300674)
(306.02224 0 -5.1535601)
(306.16243 0 -5.5939463)
(305.69708 1.0738914e-16 -4.2809472)
(305.73867 0 -4.7623054)
(305.48869 1.3428921e-16 -3.6207132)
(305.46136 -1.2356217e-16 -4.079013)
(305.37273 1.191829e-16 -3.147079)
(305.33822 0 -3.4730037)
(305.32231 5.0170843e-16 -2.7677937)
(305.30861 1.3403166e-16 -2.9559921)
(305.33443 4.2604836e-16 -2.3985278)
(305.30687 2.0950168e-16 -2.5462759)
(305.37936 1.6974009e-16 -2.0678967)
(305.34518 -9.0910714e-18 -2.2036308)
(305.43449 2.3890186e-16 -1.7663299)
(305.40217 2.009527e-16 -1.8818427)
(305.48507 2.1034504e-16 -1.5051506)
(305.4586 7.7514214e-21 -1.6066693)
(305.51611 5.6363182e-16 -1.2466606)
(305.50175 2.2400416e-17 -1.3732321)
(305.53776 1.5554618e-16 -0.9029578)
(305.51971 1.7030447e-16 -1.0833598)
(305.58397 -2.7076748e-16 -0.48202116)
(305.56417 -2.7362413e-18 -0.63705496)
(305.63419 2.4160475e-18 -0.069258769)
(305.63967 1.8139605e-16 -0.17970643)
(305.61571 9.0705584e-17 0.25453864)
(305.64512 -1.2723955e-17 0.13060316)
(305.38172 4.2553939e-17 0.34036488)
(305.59089 1.1417991e-16 0.43750684)
(305.19893 -8.4784485e-17 0.75707637)
(218.06962 1.8598024e-16 -11.602206)
(202.14455 1.6816897e-16 -11.465244)
(249.06452 -9.3474831e-17 -13.350726)
(238.54068 1.0060809e-18 -13.172653)
(272.68662 4.722641e-17 -14.748429)
(263.34193 -2.0755828e-16 -14.772879)
(295.00969 1.2248265e-16 -16.12455)
(285.71325 2.6405271e-16 -16.063126)
(314.3338 -8.3891888e-17 -17.396396)
(308.09803 -7.5570478e-17 -17.798306)
(322.6905 -2.2316664e-18 -17.948307)
(323.17873 -6.7411735e-17 -18.383337)
(323.14684 4.4534547e-17 -17.984808)
(322.3979 1.1384851e-16 -19.062406)
(323.37759 1.8498121e-17 -18.011609)
(324.01466 5.1398978e-17 -18.117472)
(322.98855 -4.1883862e-17 -18.001958)
(322.57603 -8.2344309e-17 -19.319387)
(323.04744 -4.6884914e-21 -18.021531)
(323.42209 -6.9894503e-17 -18.030397)
(322.7674 0 -18.024246)
(322.56023 5.4755327e-17 -19.320529)
(322.72048 1.2609094e-17 -18.040026)
(322.95337 5.1393802e-17 -18.155574)
(322.49246 2.2146736e-17 -18.05332)
(322.40449 -3.379924e-17 -19.197728)
(322.35602 -3.2933314e-18 -18.064032)
(322.50304 -2.4130541e-17 -18.357579)
(322.11051 2.4772711e-17 -18.075837)
(322.08278 4.0859498e-19 -19.0527)
(321.8975 3.8700275e-17 -18.104336)
(322.00633 3.1327101e-17 -18.57159)
(321.59241 -9.6982293e-18 -18.140005)
(321.62985 9.5526605e-18 -18.977386)
(321.26053 -1.1173333e-17 -18.171102)
(321.3927 0 -18.755274)
(320.84017 -2.2761706e-17 -18.200527)
(320.97501 1.3216164e-17 -18.952214)
(320.35959 -2.6692413e-17 -18.1937)
(320.5607 -1.013948e-17 -18.847094)
(319.79178 -1.8720019e-17 -18.156737)
(320.01523 -1.6918562e-17 -18.894182)
(319.13187 -1.0582219e-17 -18.069572)
(319.40527 1.4644161e-17 -18.787355)
(318.35155 -5.6761268e-17 -17.90434)
(318.66425 2.4760855e-17 -18.678167)
(317.44524 -2.4372382e-17 -17.622699)
(317.80794 -1.2824834e-16 -18.427196)
(316.402 9.5077764e-17 -17.183963)
(316.80798 9.7949053e-17 -18.049605)
(315.23168 1.5119388e-16 -16.543903)
(315.6765 1.1490289e-17 -17.465566)
(313.95833 1.3545791e-16 -15.671626)
(314.42583 -2.542331e-18 -16.650762)
(312.62641 -4.1144378e-17 -14.561153)
(313.09837 -2.8403939e-17 -15.577332)
(311.29356 -1.9259868e-16 -13.243393)
(311.74703 -8.4657532e-17 -14.267732)
(310.0224 -1.1766107e-16 -11.785563)
(310.43774 -1.0275702e-16 -12.778474)
(308.86762 -9.7524373e-17 -10.278172)
(309.2295 -1.6723051e-16 -11.201317)
(307.86826 -1.0565913e-16 -8.8134673)
(308.16856 3.1106978e-17 -9.6369492)
(307.0448 1.1157076e-16 -7.4658463)
(307.28047 -2.2570105e-17 -8.1725622)
(306.40451 1.541049e-16 -6.2879648)
(306.57576 -2.7556408e-16 -6.8637792)
(305.92951 0 -5.2804644)
(306.05166 2.1550254e-16 -5.7626795)
(305.61889 -2.1623982e-16 -4.3692382)
(305.64248 0 -4.8775344)
(305.42508 -2.7053258e-16 -3.6965556)
(305.39455 -1.2511239e-17 -4.1458569)
(305.328 0 -3.1918715)
(305.29235 3.7768768e-16 -3.5067806)
(305.29362 -1.6561702e-16 -2.7788759)
(305.27573 -2.7144121e-16 -2.9719433)
(305.31047 -1.9996876e-16 -2.3967756)
(305.27958 -1.7405232e-16 -2.5485895)
(305.36024 -1.7215952e-18 -2.0576172)
(305.3236 -1.8393558e-17 -2.1943835)
(305.41949 -1.4959506e-17 -1.7541991)
(305.38542 2.0142138e-16 -1.8689857)
(305.47258 -1.9078168e-16 -1.4934347)
(305.44516 3.2351126e-16 -1.5950195)
(305.50591 -3.8885434e-16 -1.2310226)
(305.48984 -2.1559439e-16 -1.3619241)
(305.53772 3.1346241e-17 -0.88281822)
(305.51207 1.553415e-16 -1.0607332)
(305.57193 4.2966514e-16 -0.54199121)
(305.5801 2.5499838e-16 -0.61077674)
(305.61715 1.8832726e-16 -0.15155233)
(305.64967 1.7693144e-16 -0.16436931)
(305.61012 -2.9036222e-18 0.21616828)
(305.64694 -8.505885e-18 0.13431069)
(305.38584 5.9695454e-18 0.37325768)
(305.59099 9.5442312e-18 0.43332465)
(305.19119 -1.5534535e-16 0.72416104)
(219.40014 1.6984095e-19 -12.592154)
(203.38371 7.2348289e-19 -12.405825)
(250.55876 -9.4234539e-17 -14.480929)
(239.95414 -4.3243241e-20 -14.259727)
(274.3257 -3.2393755e-17 -15.988354)
(264.92422 -1.0354502e-16 -15.986939)
(296.762 9.7007724e-17 -17.468577)
(287.42565 8.7471066e-17 -17.365339)
(315.55901 -6.0109698e-17 -18.785351)
(309.85539 7.9190997e-17 -19.245686)
(322.95669 3.1851828e-17 -19.300097)
(323.64043 -2.0121879e-16 -19.720463)
(323.11253 1.2541569e-16 -19.319264)
(322.33059 1.6903462e-16 -20.453261)
(323.33797 -3.6672141e-17 -19.345191)
(323.98359 -4.8209992e-17 -19.415537)
(322.93918 -1.1068288e-16 -19.336924)
(322.52016 7.70189e-17 -20.705747)
(323.00632 -2.6143324e-17 -19.356356)
(323.38218 -1.3503562e-16 -19.339416)
(322.72857 1.0523747e-16 -19.36388)
(322.51339 5.3502742e-17 -20.700347)
(322.69345 1.273713e-17 -19.385309)
(322.9147 9.0861445e-17 -19.488121)
(322.46615 -7.9789861e-17 -19.396936)
(322.34133 -8.5065684e-17 -20.576247)
(322.33403 -2.2429881e-17 -19.422913)
(322.46173 -6.8251599e-18 -19.723159)
(322.08156 4.3350364e-18 -19.454418)
(322.04099 -4.0837799e-17 -20.442926)
(321.8526 4.563343e-18 -19.489678)
(321.96492 2.2759271e-17 -19.964342)
(321.53193 1.9814207e-17 -19.529649)
(321.58659 -7.4991895e-19 -20.369532)
(321.18443 2.2786906e-17 -19.554848)
(321.33342 1.5474092e-17 -20.143582)
(320.75784 2.7497772e-17 -19.563399)
(320.90058 5.0704705e-17 -20.329719)
(320.27583 0 -19.550512)
(320.47418 -4.2989446e-17 -20.221203)
(319.6948 1.3118121e-17 -19.504462)
(319.91446 0 -20.257822)
(319.01356 4.8440978e-17 -19.398402)
(319.28365 1.4358234e-17 -20.138881)
(318.20939 -3.2143286e-17 -19.204553)
(318.51837 -5.033152e-17 -20.003721)
(317.2729 -2.7999743e-17 -18.879055)
(317.63195 2.8232283e-18 -19.715426)
(316.19798 2.3497821e-17 -18.376833)
(316.59925 -6.0846278e-17 -19.280266)
(314.99675 -1.384759e-16 -17.650938)
(315.43434 -6.7058157e-17 -18.616875)
(313.69833 -1.6149605e-16 -16.670741)
(314.15461 -8.7418517e-17 -17.698428)
(312.35195 -6.5958252e-17 -15.43493)
(312.80759 -2.1844406e-16 -16.501336)
(311.01856 5.689906e-18 -13.982662)
(311.45062 1.4485493e-17 -15.055577)
(309.76128 -1.45465e-16 -12.390747)
(310.15127 -1.1499728e-17 -13.428033)
(308.63224 -5.9646002e-17 -10.758064)
(308.96694 3.4255739e-18 -11.719953)
(307.66588 1.1872192e-16 -9.1822028)
(307.93948 1.1584193e-16 -10.03866)
(306.87801 -3.802006e-16 -7.74051)
(307.08916 -1.1326846e-17 -8.4735427)
(306.27107 -2.6595953e-16 -6.4852207)
(306.42238 -1.0837001e-16 -7.0822906)
(305.83035 2.3839225e-16 -5.387452)
(305.92691 -1.675751e-17 -5.9196336)
(305.5348 2.0391277e-16 -4.4545793)
(305.54193 0 -4.9830615)
(305.35924 5.8924295e-16 -3.7633083)
(305.32469 4.6041914e-16 -4.204842)
(305.27959 1.7908376e-16 -3.2332192)
(305.24328 3.8762592e-16 -3.5356926)
(305.26222 -2.9068124e-16 -2.7878388)
(305.23889 2.7429939e-16 -2.9848915)
(305.28586 -1.0477287e-17 -2.393132)
(305.25094 -1.2595159e-17 -2.5489449)
(305.3406 1.595814e-16 -2.046212)
(305.30164 -2.8483375e-16 -2.1836645)
(305.40416 5.2596514e-16 -1.7413595)
(305.36846 -6.71471e-16 -1.8552123)
(305.45995 3.6070745e-16 -1.480975)
(305.43176 -2.9298723e-16 -1.5829158)
(305.49595 2.8734963e-16 -1.2136726)
(305.47804 0 -1.3494569)
(305.54051 3.6832135e-16 -0.85940729)
(305.50541 -7.6190075e-18 -1.034725)
(305.56544 8.5358904e-18 -0.59557225)
(305.59887 1.5265284e-17 -0.5829989)
(305.60022 0 -0.23870913)
(305.66105 3.6110721e-16 -0.15116931)
(305.59833 2.7897803e-18 0.1536571)
(305.64922 2.543646e-16 0.13572099)
(305.39078 -1.3623069e-16 0.42279248)
(305.58673 3.1604948e-18 0.42722712)
(305.18469 -8.9723478e-18 0.6911982)
(220.71067 5.7321674e-19 -13.606919)
(204.59172 -1.4546975e-18 -13.368822)
(252.04453 -1.1053846e-18 -15.640603)
(241.34697 -1.3469609e-16 -15.371077)
(275.96894 -1.3042244e-18 -17.262083)
(266.4994 0 -17.229529)
(298.4778 7.0713173e-17 -18.848295)
(289.15224 -9.1715848e-17 -18.699518)
(316.67406 -3.6831684e-17 -20.199477)
(311.49455 2.3982747e-16 -20.719479)
(323.14113 -9.6073338e-17 -20.671944)
(323.96581 -2.7831368e-16 -21.066063)
(323.05498 1.6367262e-17 -20.675548)
(322.23294 5.6440372e-17 -21.866705)
(323.30133 5.3076987e-17 -20.70016)
(323.91009 -7.2105877e-18 -20.735387)
(322.89961 6.9847814e-17 -20.692829)
(322.44901 1.2782765e-16 -22.121823)
(322.97326 -7.1990616e-17 -20.7153)
(323.32565 -6.5225264e-17 -20.68006)
(322.71861 3.6515845e-17 -20.731189)
(322.46281 4.9580671e-17 -22.115467)
(322.66938 9.1199333e-18 -20.765696)
(322.88702 4.4011629e-18 -20.855895)
(322.4181 -1.9940463e-17 -20.788093)
(322.28056 -3.7757858e-17 -21.987716)
(322.27631 -2.2111858e-17 -20.820852)
(322.40914 2.367237e-17 -21.120672)
(322.01265 -2.7933881e-17 -20.858962)
(321.98666 -5.2520555e-17 -21.853357)
(321.77188 1.945374e-17 -20.891899)
(321.8988 1.0035318e-17 -21.368208)
(321.44411 -6.3167325e-18 -20.920362)
(321.50898 -3.7216044e-17 -21.768714)
(321.09722 3.9914932e-17 -20.938417)
(321.24442 3.096547e-17 -21.543283)
(320.6671 -1.0574897e-17 -20.947689)
(320.80372 -9.4700395e-19 -21.724522)
(320.16921 -4.6580246e-17 -20.930075)
(320.3621 3.4247054e-17 -21.61724)
(319.5703 0 -20.873058)
(319.78548 3.6320561e-17 -21.643029)
(318.86599 -7.6990555e-17 -20.747833)
(319.13143 -1.5005299e-17 -21.510727)
(318.0327 -2.0600193e-17 -20.521725)
(318.33882 -2.1839464e-17 -21.347244)
(317.06358 -2.3864343e-17 -20.147429)
(317.41942 8.0095475e-17 -21.017063)
(315.95417 -1.4928725e-16 -19.575066)
(316.35124 4.5527312e-18 -20.517979)
(314.72068 -1.4956413e-17 -18.755481)
(315.15107 -1.3486099e-17 -19.767262)
(313.39747 -1.3138706e-16 -17.659216)
(313.84198 0 -18.736498)
(312.03882 -1.6110032e-16 -16.2909)
(312.47706 1.7252455e-16 -17.407671)
(310.70873 0 -14.699075)
(311.11796 -1.497386e-17 -15.819676)
(309.47017 1.3419867e-16 -12.970759)
(309.83336 1.9310205e-16 -14.050611)
(308.37201 1.6573626e-16 -11.213039)
(308.67826 1.4904603e-16 -12.211308)
(307.44361 0 -9.528316)
(307.68945 1.5032343e-17 -10.414951)
(306.69591 2.6829707e-16 -7.9964395)
(306.88165 3.6157437e-16 -8.752338)
(306.12466 1.2908582e-16 -6.6671634)
(306.2565 1.2505045e-17 -7.2841051)
(305.71883 -2.5529812e-16 -5.4909973)
(305.79012 -2.1540214e-16 -6.0631498)
(305.44569 2.0517306e-16 -4.5335734)
(305.43698 -1.0335938e-17 -5.0771737)
(305.29154 2.6671889e-16 -3.8231615)
(305.25191 -1.7858883e-17 -4.2554702)
(305.22921 4.9522028e-16 -3.2694785)
(305.19112 -7.5073697e-16 -3.5594985)
(305.22726 5.8373306e-16 -2.7942295)
(305.19835 8.3369376e-16 -2.9942375)
(305.25976 -2.5565203e-16 -2.3873707)
(305.22115 -3.7581144e-17 -2.5468664)
(305.32073 -1.0712895e-15 -2.0335575)
(305.2794 2.8096274e-17 -2.1713809)
(305.38884 -1.5343192e-15 -1.7276708)
(305.35134 -4.5678856e-16 -1.8404339)
(305.44758 -6.8809508e-16 -1.467593)
(305.41839 -2.8528286e-16 -1.5702288)
(305.48679 -2.9514845e-16 -1.1948831)
(305.46652 -7.1145667e-18 -1.3355217)
(305.54501 -3.6486659e-16 -0.83261658)
(305.50018 -3.3416243e-16 -1.0059176)
(305.56844 3.2748675e-16 -0.61840604)
(305.61749 7.6211342e-18 -0.55383686)
(305.58974 6.2556712e-16 -0.31022378)
(305.67308 1.2038368e-17 -0.13963267)
(305.57857 2.8438111e-16 0.046815457)
(305.65598 -1.9666022e-18 0.134947)
(305.39769 1.333809e-16 0.4915321)
(305.5774 0 0.41889552)
(305.17933 -1.3877757e-16 0.65820404)
(221.99491 -1.2349223e-16 -14.643112)
(205.76383 -1.8582551e-16 -14.353175)
(253.51539 -1.4407542e-16 -16.824702)
(242.70581 5.5924663e-18 -16.504415)
(277.61913 -8.118692e-17 -18.563207)
(268.05097 0 -18.49825)
(300.15175 4.7683742e-17 -20.253301)
(290.88393 -1.8783613e-16 -20.06657)
(317.67491 4.4262657e-17 -21.627242)
(312.99146 2.4364663e-16 -22.221671)
(323.27226 -1.5543568e-16 -22.059511)
(324.19582 -6.5241117e-17 -22.430378)
(323.00066 3.8378756e-17 -22.057181)
(322.15007 -5.9784383e-17 -23.314921)
(323.25919 5.5261452e-17 -22.091821)
(323.85252 4.1779432e-17 -22.090398)
(322.87576 1.0993167e-17 -22.090756)
(322.37633 8.2535752e-17 -23.576674)
(322.94706 4.455648e-17 -22.12375)
(323.27976 1.033207e-19 -22.058248)
(322.67243 2.1782639e-17 -22.138829)
(322.38834 -9.0185095e-18 -23.562889)
(322.60775 -3.811206e-17 -22.173307)
(322.83621 -3.4527256e-17 -22.250667)
(322.33682 0 -22.202157)
(322.21277 4.0003323e-17 -23.415746)
(322.18637 0 -22.23326)
(322.33125 -1.6551416e-17 -22.528002)
(321.91729 -2.0424775e-17 -22.264958)
(321.90011 9.7944153e-20 -23.27025)
(321.6768 -4.1587079e-17 -22.293848)
(321.80349 -2.2206206e-17 -22.783031)
(321.34942 -6.2868658e-18 -22.325185)
(321.41021 -3.780197e-17 -23.183319)
(320.99323 -6.4277011e-18 -22.346148)
(321.13407 1.5486745e-17 -22.964562)
(320.54968 4.0041461e-17 -22.354088)
(320.68233 -3.8998e-17 -23.141879)
(320.03593 1.1530815e-16 -22.331414)
(320.22344 6.3806397e-17 -23.03549)
(319.416 2.5962874e-17 -22.262815)
(319.62753 5.4161398e-17 -23.049612)
(318.68495 3.9704866e-17 -22.11579)
(318.94714 -2.9982128e-17 -22.902063)
(317.82045 6.8114165e-17 -21.85384)
(318.12407 6.1401321e-17 -22.706797)
(316.81564 1.1474239e-16 -21.424992)
(317.16858 1.0712939e-17 -22.329507)
(315.6696 1.3969153e-16 -20.775087)
(316.0622 2.0468966e-16 -21.759274)
(314.40285 0 -19.853211)
(314.82522 -1.1428392e-16 -20.912426)
(313.05571 2.8344544e-16 -18.632238)
(313.48696 1.7562207e-16 -19.760049)
(311.68762 3.3431955e-16 -17.124151)
(312.10647 1.6155969e-16 -18.291202)
(310.36524 1.5563404e-16 -15.388033)
(310.74945 -1.4779486e-17 -16.555144)
(309.15066 2.1205364e-16 -13.521585)
(309.48498 1.9130119e-16 -14.641922)
(308.08874 1.3371476e-17 -11.639769)
(308.36473 0 -12.671811)