/*--------------------------------*- C++ -*----------------------------------*\
  =========                 |
  \\      /  F ield         | OpenFOAM: The Open Source CFD Toolbox
   \\    /   O peration     | Website:  https://openfoam.org
    \\  /    A nd           | Version:  8
     \\/     M anipulation  |
\*---------------------------------------------------------------------------*/
FoamFile
{
    version     2.0;
    format      ascii;
    class       volScalarField;
    location    "0.199992";
    object      T;
}
// * * * * * * * * * * * * * * * * * * * * * * * * * * * * * * * * * * * * * //

dimensions      [0 0 0 1 0 0 0];

internalField   nonuniform List<scalar> 
20000
(
297.21199
296.88294
295.87143
293.7867
289.90456
283.51354
282.10197
281.879
282.37563
282.36365
282.7472
282.85944
283.20372
283.4213
283.77998
284.09804
284.51297
284.93862
285.43978
285.98077
286.58691
287.26687
288.04385
288.8978
289.81477
290.78024
291.78361
292.7988
293.79348
294.73348
295.58704
296.33052
296.95104
297.44686
297.82053
298.08368
298.26975
298.3869
298.429
298.41573
298.38079
298.31615
298.24004
298.17173
298.10388
297.99574
297.78192
297.64628
297.54898
297.47468
297.17339
296.76484
295.67626
293.46562
289.32394
283.00084
281.93518
281.71243
282.20908
282.19318
282.57834
282.69167
283.03887
283.2612
283.62425
283.94935
284.36944
284.80217
285.31014
285.8667
286.50775
287.22939
288.02115
288.88458
289.81227
290.7981
291.82096
292.85164
293.85604
294.79897
295.64945
296.38528
296.99599
297.4814
297.8447
298.10434
298.2935
298.39701
298.42873
298.41968
298.38169
298.31582
298.23926
298.1712
298.10025
297.97184
297.76293
297.61814
297.51392
297.50521
297.03388
296.55859
295.38197
293.02694
288.56136
282.43425
281.73717
281.53697
282.04434
282.03047
282.42287
282.54019
282.89192
283.12004
283.48761
283.81967
284.24497
284.68673
285.20697
285.78558
286.45407
287.1961
288.0105
288.88806
289.84037
290.84797
291.88972
292.9338
293.94479
294.88699
295.73058
296.45534
297.05331
297.52559
297.87655
298.13346
298.31363
298.40602
298.43097
298.42279
298.38204
298.31425
298.2372
298.16958
298.09569
297.95179
297.74536
297.60691
297.50742
297.51062
296.99163
296.41764
295.15362
292.66339
287.8552
281.98224
281.60159
281.40079
281.91454
281.89588
282.29276
282.4114
282.76544
282.99885
283.3701
283.70884
284.14137
284.59846
285.142
285.74888
286.43433
287.18992
288.01355
288.91718
289.89171
290.92166
291.98178
293.03811
294.05377
294.99283
295.8268
296.53775
297.12039
297.57703
297.91381
298.1672
298.33651
298.41674
298.43592
298.4273
298.383
298.3132
298.23568
298.16865
298.09053
297.92357
297.72358
297.58986
297.50208
297.52271
296.9044
296.25446
294.90479
292.28351
287.11617
281.57139
281.48243
281.27711
281.80332
281.78046
282.18138
282.30774
282.66009
282.89956
283.27561
283.62465
284.07127
284.55264
285.11446
285.73345
286.42796
287.19453
288.04525
288.97278
289.97223
291.02443
292.10205
293.16877
294.18638
295.11905
295.94004
296.63406
297.19852
297.63692
297.9586
298.20555
298.36008
298.42887
298.44279
298.43248
298.38409
298.31192
298.23395
298.16758
298.0845
297.89332
297.69968
297.57611
297.49971
297.53206
296.86031
296.11599
294.67396
291.92577
286.39762
281.24463
281.3932
281.18329
281.72272
281.69647
282.09623
282.21895
282.58015
282.82691
283.21194
283.57923
284.04076
284.53351
285.10421
285.73213
286.4409
287.23083
288.1034
289.05688
290.0808
291.15493
292.24885
293.32385
294.34056
295.26363
296.06838
296.74249
297.28601
297.70381
298.01049
298.24656
298.38543
298.44322
298.45144
298.43827
298.38548
298.31078
298.23238
298.16652
298.07709
297.86123
297.67475
297.56154
297.4982
297.54234
296.81253
295.97873
294.43985
291.56758
285.6944
280.98602
281.32666
281.1135
281.643
281.63205
282.02399
282.15791
282.53024
282.78923
283.18382
283.56074
284.02853
284.52905
285.10655
285.75242
286.48114
287.29263
288.19078
289.17007
290.219
291.31445
292.42315
293.50395
294.51657
295.42653
296.21168
296.86287
297.38263
297.77747
298.06949
298.29025
298.41239
298.4586
298.46177
298.44416
298.38708
298.30962
298.23081
298.16505
298.06736
297.83109
297.6509
297.54699
297.4953
297.55337
296.78408
295.85479
294.20758
291.20535
285.02221
280.78837
281.27531
281.06186
281.58969
281.57604
281.98714
282.12781
282.50796
282.77415
283.17273
283.5563
284.02853
284.54122
285.13498
285.7989
286.54808
287.38394
288.30739
289.31325
290.38699
291.50288
292.62446
293.70823
294.7133
295.60657
296.36875
296.99408
297.48724
297.85706
298.13454
298.33633
298.44082
298.47526
298.47372
298.44985
298.38891
298.30855
298.22933
298.16294
298.05424
297.80379
297.6294
297.5316
297.48901
297.56628
296.7652
295.73878
293.97318
290.82908
284.39369
280.64528
281.2432
281.02816
281.56562
281.56051
281.97306
282.1142
282.50008
282.77166
283.17311
283.56669
284.05028
284.57857
285.18764
285.87183
286.64323
287.50396
288.45412
289.48683
290.58521
291.72034
292.85254
293.9361
294.92994
295.8028
296.53867
297.13515
297.59899
297.94244
298.20476
298.38435
298.47038
298.49344
298.48711
298.45659
298.39087
298.30756
298.22793
298.15996
298.03717
297.77945
297.61045
297.51756
297.47948
297.58078
296.76561
295.63616
293.74076
290.43301
283.82125
280.55048
281.23911
281.02142
281.56428
281.56139
281.97474
282.12329
282.50332
282.78471
283.19429
283.60099
284.09579
284.64028
285.26697
285.97228
286.76696
287.6539
288.63139
289.69129
290.81378
291.96659
293.10676
294.18657
295.16528
296.01399
296.7202
297.28481
297.71687
298.03388
298.27863
298.43359
298.50074
298.51377
298.50136
298.46382
298.39295
298.30669
298.22663
298.15602
298.01636
297.7573
297.59294
297.5042
297.46904
297.59511
296.77247
295.54005
293.50446
290.00317
283.3077
280.49124
281.24514
281.01149
281.57133
281.56172
281.99114
282.14697
282.52935
282.82153
283.23871
283.65861
284.16609
284.72793
285.37294
286.10064
286.91987
287.83392
288.83954
289.92672
291.07257
292.24115
293.38623
294.45849
295.41803
296.23877
296.91195
297.44167
297.84003
298.13187
298.35436
298.48337
298.53184
298.53651
298.516
298.47114
298.39509
298.30595
298.22543
298.15116
297.99353
297.73582
297.5763
297.49155
297.45874
297.60828
296.79046
295.45481
293.2732
289.54054
282.86929
280.46873
281.26823
281.03339
281.59208
281.58611
282.0262
282.19001
282.57857
282.88128
283.30675
283.74076
284.26159
284.84167
285.50636
286.25751
287.10244
288.04457
289.07889
290.19325
291.36134
292.54336
293.68992
294.75052
295.6867
296.47558
297.11232
297.60436
297.96792
298.23575
298.43052
298.53318
298.56432
298.56092
298.53105
298.47859
298.39723
298.30531
298.22437
298.1454
297.96897
297.71468
297.56039
297.4796
297.44892
297.62033
296.81764
295.38159
293.05173
289.04346
282.51552
280.48168
281.30454
281.08107
281.63425
281.64492
282.08075
282.25671
282.64976
282.96412
283.39854
283.84749
284.38276
284.98207
285.66748
286.44319
287.31492
288.28597
289.34946
290.49065
291.67954
292.87225
294.01648
295.06109
295.96958
296.72265
297.3196
297.77173
298.10047
298.34324
298.50637
298.58265
298.59899
298.58625
298.54633
298.48596
298.39928
298.30476
298.22343
298.13871
297.9426
297.69369
297.54538
297.46861
297.43945
297.63166
296.86259
295.32594
292.84736
288.51661
282.23574
280.53041
281.3612
281.14909
281.70503
281.72104
282.16008
282.34436
282.74349
283.07038
283.51455
283.97924
284.52988
285.14934
285.85668
286.65802
287.55763
288.55839
289.6513
290.81868
292.02649
293.22672
294.36448
295.3885
296.26476
296.97801
297.53217
297.94301
298.23778
298.45172
298.58099
298.63215
298.63605
298.61178
298.56175
298.49317
298.40111
298.30425
298.22249
298.13085
297.91412
297.67279
297.53157
297.459
297.43049
297.64269
296.9177
295.282
292.65619
287.95948
282.02782
280.59676
281.44739
281.2332
281.79732
281.82596
282.26034
282.45532
282.86038
283.20048
283.65498
284.13618
284.70311
285.34367
286.07404
286.90207
287.8306
288.86175
289.98416
291.17677
292.40123
293.60538
294.73217
295.73073
296.57005
297.23966
297.74869
298.11786
298.37909
298.55842
298.65389
298.68304
298.67416
298.63743
298.57713
298.50012
298.4026
298.30372
298.2213
298.12127
297.88345
297.65194
297.51895
297.45131
297.42408
297.65379
296.98577
295.25173
292.4807
287.38504
281.89454
280.68738
281.55501
281.34118
281.91323
281.94276
282.38338
282.58903
283.00044
283.35434
283.81989
284.31827
284.90252
285.56512
286.31973
287.17553
288.13397
289.19606
290.34781
291.56432
292.80269
294.00674
295.11767
296.08557
296.88317
297.50588
297.96837
298.29594
298.52133
298.66204
298.72512
298.73619
298.7123
298.66293
298.59236
298.50676
298.40365
298.30311
298.21944
298.10898
297.85092
297.6312
297.50731
297.44528
297.42062
297.66534
297.07024
295.2353
292.31712
286.80484
281.83282
280.8183
281.68507
281.46968
282.05007
282.0844
282.5282
282.74545
283.16343
283.5318
284.00907
284.52548
285.12806
285.81372
286.59375
287.47837
288.46764
289.56106
290.74172
291.98041
293.22952
294.42901
295.51878
296.45051
297.20197
297.77548
298.19074
298.47605
298.6609
298.76206
298.79662
298.79004
298.75007
298.68813
298.60731
298.51305
298.40434
298.30238
298.21636
298.09245
297.81754
297.61067
297.49633
297.43989
297.41939
297.67741
297.17008
295.22958
292.15737
286.22265
281.83515
280.95206
281.83534
281.61989
282.2061
282.24669
282.69465
282.9241
283.34908
283.73259
284.22245
284.75766
285.37974
286.08952
286.89621
287.8107
288.83163
289.95659
291.16539
292.42412
293.68029
294.87022
295.93304
296.82307
297.52487
298.04783
298.41493
298.65504
298.79556
298.85887
298.8695
298.8432
298.78717
298.71284
298.62187
298.51888
298.40517
298.30146
298.21156
298.06993
297.785
297.59048
297.48582
297.43615
297.4201
297.69045
297.28967
295.23818
292.00205
285.6643
281.89803
281.11439
282.00581
281.79066
282.37972
282.43039
282.88215
283.12463
283.5571
283.95655
284.45987
285.01483
285.65756
286.39253
287.22707
288.17241
289.22571
290.38222
291.61807
292.89422
294.15324
295.32807
296.35775
297.20099
297.85096
298.32224
298.63855
298.82891
298.92505
298.95478
298.94188
298.8952
298.82337
298.73693
298.63588
298.52417
298.4067
298.30035
298.20483
298.04075
297.75464
297.57065
297.47565
297.43536
297.43043
297.70453
297.42364
295.25577
291.83979
285.13723
282.01142
281.2931
282.19233
281.98102
282.57376
282.63461
283.09051
283.34688
283.78745
284.20357
284.72137
285.29693
285.96154
286.7228
287.58639
288.56355
289.6498
290.83761
292.09899
293.38944
294.64647
295.80002
296.79026
297.58274
298.17977
298.59668
298.85709
298.99623
299.05048
299.05053
299.01223
298.94568
298.85846
298.7602
298.64914
298.52908
298.40773
298.29913
298.19638
298.00691
297.72578
297.55172
297.46644
297.43492
297.49867
297.71946
297.57264
295.28594
291.6674
284.66134
282.17271
281.49263
282.39656
282.19169
282.78746
282.85973
283.31977
283.59079
284.04004
284.47362
285.00689
285.60403
286.29169
287.08029
287.97408
288.98394
290.10355
291.32213
292.60712
293.90816
295.15768
296.28324
297.22821
297.96757
298.50989
298.86662
299.06798
299.15697
299.17437
299.14344
299.08032
298.99435
298.89223
298.78248
298.66147
298.53412
298.40774
298.2979
298.18662
297.97024
297.69799
297.535
297.45997
297.43417
297.52079
297.73526
297.73533
295.3305
291.4798
284.26928
282.37523
281.71123
282.62029
282.42226
283.02094
283.1054
283.56977
283.85621
284.31484
284.76665
285.31647
285.93603
286.64797
287.46501
288.39017
289.43356
290.58677
291.83526
293.14142
294.44863
295.68434
296.77496
297.66998
298.35501
298.83732
299.12831
299.27005
299.31374
299.29491
299.23298
299.14564
299.04098
298.92452
298.80359
298.67281
298.53933
298.40758
298.29662
298.17587
297.93199
297.6717
297.52052
297.45562
297.43498
297.48867
297.76207
297.90528
295.38601
291.26998
283.93131
282.59339
281.94922
282.86272
282.67264
283.27384
283.37149
283.84037
284.14309
284.61184
285.08263
285.65
286.29291
287.03031
287.8769
288.83458
289.91223
291.09908
292.37625
293.70056
295.00873
296.22365
297.27266
298.11474
298.74308
299.15676
299.37918
299.46496
299.46697
299.41044
299.31857
299.20794
299.08536
298.95514
298.82336
298.68335
298.54353
298.4075
298.29501
298.16376
297.89336
297.64771
297.50946
297.45417
297.43881
297.49543
297.82494
298.0827
295.45541
291.04075
283.66614
282.84242
282.20597
283.12336
282.94228
283.5459
283.65782
284.13156
284.45135
284.93094
285.42139
286.00735
286.67451
287.43868
288.31606
289.30741
290.41995
291.64019
292.94435
294.28303
295.58606
296.77274
297.77451
298.5619
299.12627
299.46479
299.61888
299.65556
299.61371
299.52072
299.39989
299.26695
299.12731
298.98392
298.84163
298.69327
298.54597
298.40743
298.29251
298.14873
297.8562
297.62704
297.50152
297.4544
297.44535
297.50977
297.82759
298.25649
295.52987
290.78523
283.46561
283.11117
282.48089
283.40198
283.23156
283.8373
283.96452
284.44327
284.78076
285.2719
285.78264
286.38832
287.08081
287.87316
288.78259
289.80868
290.95658
292.20964
293.53853
294.88697
296.17789
297.32893
298.27937
299.00937
299.49885
299.75897
299.85085
299.83916
299.75356
299.62516
299.47662
299.32248
299.16671
299.01075
298.85831
298.70255
298.54729
298.40705
298.28846
298.12813
297.82237
297.61024
297.49597
297.4554
297.45247
297.53124
297.78791
298.43399
295.61866
290.51668
283.33861
283.40357
282.77547
283.69974
283.5403
284.14785
284.29098
284.775
285.13078
285.63427
286.16612
286.79285
287.51192
288.334
289.27677
290.3386
291.52209
292.80698
294.15761
295.51023
296.78138
297.89003
298.78651
299.45099
299.8572
300.0399
300.07651
300.0138
299.88586
299.72352
299.54857
299.37438
299.20343
299.03552
298.87344
298.71083
298.54791
298.40641
298.28233
298.09945
297.79269
297.59785
297.49425
297.45612
297.46538
297.55632
297.78091
298.60116
295.71476
290.23392
283.28266
283.71311
283.08703
284.01401
283.86722
284.47644
284.63651
285.12614
285.50097
286.01789
286.57187
287.22121
287.96823
288.82155
289.79887
290.89726
292.11629
293.4315
294.80007
296.15028
297.39372
298.45444
299.29406
299.88062
300.19862
300.31151
300.29232
300.17915
300.01029
299.81553
299.61556
299.42257
299.23737
299.05817
298.88728
298.7171
298.54797
298.40556
298.27405
298.06311
297.76585
297.58663
297.49568
297.46522
297.52901
297.58537
297.79424
298.75993
295.81612
289.94509
283.30471
284.03942
283.41666
284.34549
284.21229
284.82278
285.00069
285.49643
285.89128
286.423
287.00034
287.67387
288.45022
289.33627
290.34927
291.48484
292.73903
294.08243
295.46412
296.80436
298.01237
299.02112
299.79629
300.29386
300.52407
300.57429
300.49673
300.33461
300.12658
299.90103
299.67752
299.46698
299.26846
299.07866
298.90032
298.71968
298.54762
298.40442
298.26377
298.02246
297.73953
297.57426
297.49971
297.48031
297.55332
297.64278
297.80778
298.91162
295.91911
289.66042
283.40449
284.38123
283.76238
284.69312
284.57438
285.18634
285.38334
285.88621
286.30228
286.85031
287.45218
288.15148
288.95848
289.87861
290.92828
292.10142
293.38995
294.75865
296.14754
297.4696
298.63519
299.58872
300.28651
300.68733
300.8376
300.82484
300.68922
300.47992
300.23454
299.97992
299.73441
299.5076
299.29666
299.09704
298.91279
298.72054
298.54684
298.40268
298.25116
297.97841
297.71605
297.56841
297.50445
297.49539
297.52436
297.69735
297.82114
299.05464
296.015
289.39041
283.57353
284.7366
284.12392
285.05656
284.95419
285.56791
285.7856
286.29663
286.73498
287.30066
287.9281
288.65459
289.4935
290.44905
291.53628
292.7471
294.06865
295.45874
296.84777
298.14326
299.26056
300.15297
300.75902
301.06095
301.1404
301.0612
300.86933
300.61486
300.33411
300.05223
299.78627
299.5444
299.32203
299.1136
298.92283
298.72015
298.54556
298.39972
298.23481
297.9336
297.69463
297.56713
297.5097
297.50915
297.53042
297.68055
297.84346
299.18424
296.09653
289.14846
283.80557
285.10774
284.50396
285.43734
285.35364
285.96924
286.20878
286.72874
287.19006
287.77458
288.42855
289.18371
290.05586
291.04805
292.17354
293.42184
294.77441
296.18084
297.56198
298.82285
299.88723
300.70656
301.20992
301.41898
301.42877
301.28296
301.03679
300.73936
300.42531
300.11803
299.83314
299.57736
299.34469
299.12906
298.92693
298.71924
298.54347
298.39475
298.21188
297.89213
297.67546
297.56631
297.5164
297.51607
297.54132
297.68427
297.8927
299.30955
296.16234
288.94989
284.09601
285.49723
284.90373
285.83807
285.77399
286.39129
286.65336
287.18285
287.66776
288.27242
288.95401
289.73942
290.64613
291.67616
292.84044
294.12559
295.50623
296.92273
298.28729
299.50617
300.5128
301.24232
301.63704
301.76446
301.70004
301.48963
301.19149
300.85345
300.50829
300.17744
299.87504
299.60648
299.36479
299.14402
298.92873
298.71756
298.54086
298.38724
298.17934
297.85842
297.66079
297.5643
297.52664
297.51364
297.56285
297.70129
297.88806
299.43982
296.2079
288.80524
284.42608
285.90574
285.32406
286.25859
286.21493
286.83373
287.11899
287.65893
288.16831
288.79463
289.50512
290.32238
291.26502
292.33389
293.53723
294.85801
296.26275
297.68183
299.02101
300.19133
301.13054
301.75558
302.04424
302.0935
301.9539
301.68101
301.33343
300.9573
300.58322
300.23052
299.91193
299.6319
299.3827
299.15677
298.92904
298.71513
298.53796
298.37721
298.13813
297.83188
297.65286
297.56658
297.53576
297.51061
297.58795
297.72161
297.85906
299.57467
296.2279
288.7238
284.7688
286.33271
285.76392
286.69707
286.67542
287.29599
287.60566
288.15735
288.69229
289.34193
290.08267
290.93341
291.91323
293.02183
294.26416
295.61857
297.04215
298.45528
299.76054
300.87656
301.73277
302.2423
302.43514
302.40344
302.18975
301.85703
301.46279
301.05113
300.65023
300.27722
299.9438
299.65401
299.39921
299.16297
298.92897
298.71207
298.53475
298.36447
298.09138
297.8086
297.64845
297.57148
297.54439
297.51671
297.61781
297.73775
297.86053
299.71209
296.21548
288.70738
285.19372
286.77462
286.22143
287.15317
287.1559
287.77882
288.11421
288.67902
289.24054
289.91518
290.68754
291.57335
292.59155
293.7405
295.02128
296.40634
297.84216
299.24022
300.5035
301.55796
302.31243
302.70363
302.80861
302.69272
302.40746
302.0178
301.57982
301.13517
300.70932
300.3175
299.9709
299.67347
299.41499
299.16586
298.92776
298.70845
298.53067
298.3474
298.04131
297.78625
297.64711
297.57924
297.55398
297.53468
297.6648
297.74909
297.8677
299.85357
296.17237
288.76143
285.65067
287.23505
286.69967
287.62919
287.65794
288.28357
288.64555
289.2248
289.81394
290.51529
291.32068
292.24311
293.30073
294.49041
295.80846
297.21997
298.66011
300.03378
301.24765
302.22741
302.86479
303.14352
303.16121
302.96101
302.60699
302.16359
301.68485
301.20956
300.76048
300.35162
299.99407
299.69111
299.42826
299.16692
298.92544
298.70445
298.52484
298.32268
297.99404
297.76598
297.64746
297.58981
297.56383
297.56769
297.73652
297.76355
297.87461
300.00442
296.10661
288.89182
286.10737
287.71522
287.19889
288.12622
288.18181
288.81076
289.20033
289.79553
290.41345
291.1433
291.98315
292.94361
294.04157
295.27195
296.62525
298.05765
299.4931
300.83318
301.99048
302.87678
303.38689
303.56493
303.48987
303.20806
302.78853
302.29476
301.77817
301.27441
300.80402
300.3806
300.01467
299.70737
299.43448
299.16753
298.9222
298.70036
298.51683
298.28738
297.956
297.7512
297.64915
297.602
297.58297
297.61868
297.73766
297.80418
297.88194
300.16047
296.01957
289.09541
286.59014
288.21402
287.71951
288.64358
288.72817
289.3612
289.77954
290.39231
291.0402
291.80034
292.67606
293.67586
294.81482
296.0854
297.47084
298.91707
300.33812
301.63555
302.72613
303.49906
303.88211
303.96368
303.79448
303.4339
302.95246
302.41173
301.86001
301.33
300.841
300.40616
300.03357
299.72095
299.43739
299.16723
298.91812
298.69643
298.50693
298.24339
297.9266
297.74234
297.65202
297.61756
297.6431
297.66794
297.74139
297.8225
297.90146
300.31061
295.91927
289.36863
287.09816
288.73202
288.26265
289.18288
289.29831
289.93612
290.38429
291.01633
291.69535
292.48762
293.40054
294.44085
295.62123
296.93075
298.34383
299.79549
301.19227
302.43836
303.4458
304.08894
304.35449
304.33667
304.07451
303.63877
303.09924
302.51486
301.93059
301.37714
300.87327
300.4294
300.04943
299.72772
299.43855
299.16538
298.9134
298.69248
298.49486
298.19526
297.90155
297.73702
297.65864
297.63399
297.64538
297.70776
297.75435
297.81593
297.9327
300.45753
295.81695
289.7073
287.63516
289.27136
288.82915
289.74551
289.8932
290.53661
291.0157
291.66877
292.38019
293.20631
294.15777
295.23958
296.46139
297.80761
299.24233
300.68975
302.05229
303.23819
304.14066
304.64568
304.80363
304.68192
304.33008
303.8231
303.22936
302.60449
301.99055
301.41735
300.90222
300.44854
300.0582
299.7305
299.4392
299.16221
298.90808
298.68755
298.47753
298.14558
297.87986
297.73466
297.66866
297.64883
297.62996
297.73395
297.76777
297.82503
297.91615
300.62244
295.72464
290.09971
288.19758
289.83297
289.42002
290.3319
290.5138
291.16385
291.67491
292.35091
293.09598
293.95775
294.94898
296.07307
297.33573
298.71518
300.16392
301.59672
302.91472
304.02732
304.80373
305.17317
305.22552
304.99922
304.56138
303.98743
303.34327
302.68115
302.04129
301.45244
300.92648
300.45865
300.06136
299.73126
299.43879
299.15776
298.90224
298.68022
298.44988
298.09886
297.86184
297.73639
297.68186
297.66569
297.64276
297.74953
297.7839
297.83471
297.90519
300.80258
295.64863
290.54731
288.78474
290.41781
290.03645
290.94309
291.16129
291.81913
292.36321
293.06409
293.84418
294.74331
295.77551
296.94231
298.24439
299.65204
301.10565
302.51309
303.77621
304.7958
305.42945
305.67623
305.6162
305.28846
304.76893
304.13235
303.44145
302.74587
302.08486
301.48288
300.94106
300.46243
300.06194
299.73128
299.43677
299.15235
298.89603
298.6695
298.40871
298.05944
297.84755
297.74283
297.69857
297.68243
297.67497
297.76107
297.80299
297.84251
297.90905
301.01465
295.5943
291.03887
289.39421
291.0264
290.68014
291.58076
291.83679
292.50379
293.0819
293.80981
294.62636
295.5646
296.63876
297.84816
299.18705
300.61616
302.06424
303.43527
304.6323
305.53388
306.02018
306.15022
305.97538
305.54989
304.95334
304.25846
303.52476
302.80044
302.12267
301.50577
300.9469
300.46315
300.06133
299.73026
299.43337
299.14619
298.88966
298.65555
298.35853
298.02733
297.8396
297.75166
297.71468
297.69555
297.70767
297.77643
297.82446
297.85118
297.91357
301.24063
295.54947
291.58601
290.03328
291.65873
291.35195
292.24577
292.54146
293.21922
293.83261
294.58985
295.44441
296.42328
297.5401
298.79119
300.16281
301.60484
303.0361
304.35895
305.47287
306.23468
306.57975
306.59167
306.30259
305.78398
305.11529
304.36655
303.59481
302.84703
302.15337
301.51595
300.94875
300.46239
300.05935
299.72736
299.42873
299.13953
298.88303
298.63831
298.30477
298.00157
297.83575
297.75856
297.72788
297.70494
297.73496
297.80028
297.85918
297.87119
297.9191
301.51104
295.54803
292.17044
290.70245
292.31643
292.05265
292.93966
293.27679
293.96743
294.61739
295.40641
296.30034
297.32121
298.48085
299.77163
301.17005
302.61484
304.01745
305.27987
306.28765
306.89448
307.10988
306.99727
306.59813
305.99142
305.25555
304.45779
303.65393
302.88655
302.17181
301.52019
300.94856
300.45922
300.05507
299.72302
299.42306
299.13243
298.87527
298.61591
298.25204
297.97959
297.83292
297.765
297.7396
297.7128
297.76589
297.83847
297.87238
297.9015
297.93902
301.81895
295.58305
292.79004
291.39939
293.00028
292.78444
293.66411
294.04526
294.75087
295.43871
296.26175
297.19639
298.26012
299.46206
300.78902
302.20643
303.64236
305.00361
306.19106
307.06605
307.51638
307.60548
307.36701
306.86238
306.17301
305.37518
304.53406
303.70404
302.91636
302.17998
301.52127
300.94548
300.45334
300.04897
299.71725
299.41662
299.12497
298.86498
298.58365
298.20512
297.96065
297.83067
297.77089
297.74952
297.72309
297.81801
297.85965
297.86909
297.89718
297.95679
302.17174
295.6418
293.45335
292.13009
293.7145
293.55015
294.42291
294.84921
295.57233
296.29908
297.15832
298.13471
299.2417
300.48431
301.84215
303.26875
304.68331
305.98952
307.0808
307.80089
308.10544
308.06213
307.7007
307.09606
306.32972
305.47577
304.59786
303.74443
302.93068
302.1831
301.51961
300.93896
300.44506
300.04108
299.71031
299.40966
299.11726
298.85155
298.53847
298.16733
297.94492
297.83012
297.77704
297.75913
297.74561
297.82443
297.85869
297.87423
297.89902
297.94492
302.56884
295.71405
294.15512
292.89525
294.4603
294.35215
295.21801
295.69117
296.43454
297.2012
298.0986
299.11747
300.26728
301.5475
302.92885
304.3531
305.73279
306.96926
307.93753
308.49163
308.65822
308.47845
307.99881
307.30009
306.46287
305.55956
304.65116
303.77036
302.93685
302.18304
301.51363
300.92949
300.43457
300.03166
299.70236
299.40243
299.10943
298.83539
298.48792
298.1336
297.93205
297.8318
297.78524
297.77094
297.77124
297.82433
297.86274
297.88334
297.90352
297.94557
303.0146
295.8247
294.89847
293.69921
295.24134
295.19374
296.05303
296.57396
297.34048
298.14798
299.08508
300.1466
301.33772
302.65071
304.04614
305.45487
306.78493
307.9329
308.75072
309.14213
309.17003
308.85414
308.262
307.47567
306.5744
305.62899
304.69283
303.78258
302.93876
302.17851
301.50419
300.91727
300.42213
300.02087
299.69359
299.39509
299.10129
298.81608
298.43391
298.10399
297.92243
297.83563
297.79535
297.78418
297.79096
297.83492
297.87027
297.89301
297.9093
297.94936
303.50938
295.97432
295.68321
294.54423
296.05935
296.07719
296.93127
297.50058
298.29328
299.14234
300.12013
301.22366
302.4532
303.7921
305.19006
306.56906
307.83313
308.86725
309.51432
309.75506
309.63642
309.18949
308.49131
307.62444
306.66694
305.6856
304.71608
303.78754
302.93629
302.16964
301.49142
300.90267
300.40798
300.0089
299.68418
299.38761
299.09193
298.7918
298.38108
298.07831
297.91558
297.84116
297.80609
297.79645
297.8079
297.84864
297.88129
297.90183
297.91654
297.95356
304.04627
296.19209
296.50896
295.43465
296.91823
297.00522
297.85649
298.47469
299.29611
300.18711
301.2057
302.34972
303.61309
304.96878
306.35582
307.68939
308.86944
309.75886
310.23069
310.32401
310.05738
309.48512
308.68816
307.74864
306.743
305.72786
304.72656
303.78769
302.92834
302.15691
301.4758
300.88593
300.39231
299.99594
299.67436
299.37997
299.07999
298.75853
298.33378
298.05716
297.91132
297.84682
297.81559
297.80566
297.8229
297.86302
297.89291
297.91037
297.92976
297.96273
304.62516
296.48888
297.37186
296.37415
297.82374
297.98186
298.8329
299.4994
300.35183
301.2844
302.34338
303.52515
304.81578
306.17675
307.53763
308.80801
309.87913
310.59814
310.90507
310.84335
310.43264
309.74213
308.85446
307.85106
306.80373
305.75038
304.73036
303.78176
302.91583
302.14072
301.45766
300.86737
300.37534
299.98219
299.66438
299.37232
299.06487
298.71375
298.29457
298.04047
297.90899
297.85199
297.82349
297.81066
297.83617
297.87719
297.90335
297.92116
297.94125
297.97631
305.23693
296.87897
298.27986
297.36701
298.77953
299.01047
299.86338
300.57736
301.46242
302.4363
303.53442
304.74967
306.05849
307.41077
308.72854
309.91602
310.84827
311.38406
311.53207
311.31166
310.7629
309.96213
308.99274
307.93446
306.84656
305.76035
304.72833
303.77009
302.89911
302.12155
301.43736
300.84722
300.35724
299.96781
299.65454
299.3651
299.04772
298.66351
298.25988
298.02647
297.90748
297.85789
297.8327
297.81558
297.85234
297.89112
297.91663
297.93086
297.9405
297.97249
305.8703
297.38202
299.23282
298.41581
299.78814
300.0925
300.95016
301.7109
302.63025
303.64499
304.77994
306.02203
307.33711
308.66433
309.91964
311.00041
311.76324
312.1202
312.10559
311.72845
311.0492
310.14735
309.10602
308.00014
306.8694
305.76315
304.719
303.75344
302.87879
302.0998
301.41524
300.82574
300.33818
299.953
299.64504
299.35853
299.02882
298.60792
298.22882
298.01465
297.90792
297.8657
297.84451
297.82536
297.86809
297.90775
297.92691
297.93422
297.94363
297.97264
306.5101
298.02453
300.23042
299.5212
300.85165
301.22977
302.09627
302.9036
303.85862
304.91296
306.08024
307.33957
308.64589
309.92945
311.10061
312.04474
312.61853
312.80553
312.62157
312.09425
311.29338
310.30068
309.19739
308.0445
306.87948
305.75854
304.70369
303.73237
302.85535
302.07587
301.39162
300.80316
300.31832
299.93793
299.63581
299.35155
299.00606
298.55055
298.20045
298.00501
297.90988
297.87426
297.8578
297.83969
297.88391
297.91492
297.93021
297.9374
297.94751
297.97457
307.13214
298.83988
301.2754
300.68368
301.97234
302.42595
303.30684
304.16084
305.15172
306.24209
307.4343
308.69764
309.9772
311.19601
312.25859
313.03254
313.41624
313.43208
313.07966
312.41016
311.49802
310.4254
309.26854
308.06797
306.88134
305.7462
304.68301
303.70758
302.82928
302.05012
301.36679
300.77972
300.29786
299.92279
299.62669
299.34207
298.97392
298.49925
298.17556
297.99741
297.91299
297.88278
297.87046
297.85653
297.89569
297.9216
297.93458
297.94132
297.95156
297.97702
307.71295
299.85288
302.37641
301.90995
303.15733
303.6889
304.58956
305.48808
306.51295
307.6328
308.83861
310.08934
311.32136
312.45127
313.37462
313.95444
314.15804
313.99402
313.48002
312.67828
311.66665
310.52486
309.31499
308.07829
306.87439
305.72739
304.6578
303.67966
302.80103
302.02288
301.34103
300.75565
300.27692
299.90773
299.6177
299.32941
298.93112
298.45667
298.15452
297.99189
297.91672
297.89058
297.88158
297.86836
297.90582
297.92884
297.93976
297.94633
297.95692
297.98138
308.28143
301.04496
303.55822
303.21747
304.42258
305.03472
305.95749
306.88818
307.94332
309.08296
310.28712
311.50492
312.666
313.68069
314.43001
314.81099
314.83403
314.49072
313.82387
312.9016
311.80289
310.60134
309.33913
308.07924
306.85918
305.70296
304.62881
303.64918
302.77102
301.99447
301.31458
300.73119
300.2557
299.89292
299.60937
299.31525
298.88356
298.41888
298.13738
297.98881
297.92087
297.89789
297.89128
297.87779
297.91612
297.93534
297.94548
297.95217
297.96282
297.98516
308.89804
302.41306
304.82404
304.62701
305.78191
306.46401
307.38507
308.36291
309.44158
310.58739
311.77053
312.93209
313.99543
314.86288
315.41264
315.60405
315.43713
314.92215
314.11373
313.08421
311.9098
310.64974
309.34963
308.07011
306.83706
305.67387
304.59676
303.61669
302.73965
301.96515
301.28766
300.70655
300.23437
299.87844
299.60211
299.30069
298.82996
298.38587
298.1229
297.987
297.92561
297.90546
297.90071
297.88926
297.92526
297.94335
297.95233
297.95707
297.96509
297.98571
309.59688
303.82204
306.17252
306.11514
307.22055
307.956
308.91445
309.91684
311.00381
312.13679
313.27576
314.35514