/*--------------------------------*- C++ -*----------------------------------*\
  =========                 |
  \\      /  F ield         | OpenFOAM: The Open Source CFD Toolbox
   \\    /   O peration     | Website:  https://openfoam.org
    \\  /    A nd           | Version:  8
     \\/     M anipulation  |
\*---------------------------------------------------------------------------*/
FoamFile
{
    version     2.0;
    format      ascii;
    class       volVectorField;
    location    "0.199992";
    object      U;
}
// * * * * * * * * * * * * * * * * * * * * * * * * * * * * * * * * * * * * * //

dimensions      [0 1 -1 0 0 0 0];

internalField   nonuniform List<vector> 
20000
(
(199.71139 0 -7.6574694)
(235.68939 8.9785113e-22 -8.7382992)
(259.22364 -3.7470938e-19 -9.7989248)
(279.21737 0 -10.673756)
(296.72361 -5.550859e-19 -11.636739)
(309.22776 0 -12.160566)
(310.31819 0 -12.624894)
(311.30802 8.3062741e-17 -12.006461)
(310.3282 -6.9256252e-17 -12.813947)
(310.67576 0 -11.871618)
(309.97767 4.8064942e-17 -12.82708)
(309.94152 -1.1990146e-16 -11.910906)
(309.28357 1.3107419e-16 -12.728624)
(308.91232 -5.5314165e-17 -12.026899)
(308.17446 3.6041965e-19 -12.598019)
(307.47935 3.3590678e-17 -12.145747)
(306.52648 -3.2283481e-17 -12.476482)
(305.47024 2.6495726e-17 -12.213989)
(304.18704 -4.9342744e-17 -12.352431)
(302.70044 2.7192678e-17 -12.181259)
(300.95457 0 -12.187877)
(298.89199 0 -12.085553)
(296.50905 -1.0322633e-17 -12.032776)
(293.80882 1.6735528e-17 -11.852035)
(290.83415 -2.427249e-17 -11.60609)
(287.60942 2.555999e-18 -11.239043)
(284.19509 1.81951e-17 -10.751811)
(280.68678 -3.702823e-18 -10.119613)
(277.21359 0 -9.3521784)
(273.90513 -3.333279e-17 -8.4736385)
(270.88112 3.0304321e-17 -7.5348568)
(268.22795 -2.6598294e-17 -6.5944929)
(265.99731 -2.3144484e-18 -5.7086316)
(264.20343 5.7302165e-17 -4.9143974)
(262.84296 1.1262245e-16 -4.2334386)
(261.86301 -1.6680366e-17 -3.683986)
(261.16112 2.3670358e-17 -3.237821)
(260.74392 5.7965788e-17 -2.8314585)
(260.59343 0 -2.4590633)
(260.58819 0 -2.1556502)
(260.68314 -3.0904182e-17 -1.8976023)
(260.85598 -4.555903e-17 -1.6383323)
(261.05107 -1.677451e-17 -1.4035989)
(261.21325 0 -1.2004051)
(261.37021 -7.2897343e-17 -0.96995679)
(261.64697 -1.3496963e-17 -0.61326023)
(262.14965 -6.0518334e-17 -0.21047215)
(262.407 -7.8674272e-18 0.090762916)
(262.54392 0 0.37794319)
(262.54557 2.889738e-19 0.7531514)
(201.16239 0 -8.4982459)
(237.26503 0 -9.7127045)
(260.94195 3.8413718e-19 -10.872903)
(280.98132 0 -11.787863)
(298.4249 5.5918412e-19 -12.838201)
(310.26697 -1.2036071e-16 -13.322962)
(310.78552 1.0158545e-16 -13.815797)
(311.79951 0 -13.151106)
(310.79557 0 -14.051036)
(311.14988 0 -13.04693)
(310.4302 5.1989195e-17 -14.07642)
(310.39201 -4.5717526e-17 -13.109553)
(309.71502 2.1193423e-18 -13.973217)
(309.3315 5.6423836e-17 -13.239735)
(308.57426 -4.6832693e-17 -13.832048)
(307.85985 4.8769087e-18 -13.360604)
(306.8868 0 -13.689908)
(305.80651 1.3513506e-17 -13.412372)
(304.4902 -1.6666403e-17 -13.54355)
(302.94416 9.3532992e-18 -13.374653)
(301.09711 2.2442168e-19 -13.387536)
(298.93333 -5.0490703e-17 -13.273559)
(296.48834 -1.0597482e-17 -13.187427)
(293.74997 5.1219999e-17 -12.968748)
(290.71983 -2.8035191e-17 -12.673547)
(287.42849 0 -12.247666)
(283.95311 -3.7218438e-17 -11.685267)
(280.40049 3.0241806e-17 -10.962547)
(276.90486 -2.402378e-17 -10.09219)
(273.5988 3.8587881e-17 -9.1040827)
(270.59853 1.22415e-16 -8.0552568)
(267.98412 9.6197957e-17 -7.0104161)
(265.79814 -1.8779851e-17 -6.0300383)
(264.04993 7.2368482e-17 -5.1531745)
(262.73171 8.8757819e-17 -4.403529)
(261.76268 3.3740579e-17 -3.8024881)
(261.07239 -2.5394703e-17 -3.3166434)
(260.69816 -7.6182647e-17 -2.8767289)
(260.5741 -2.8363535e-17 -2.4809811)
(260.5622 2.1013697e-17 -2.1629217)
(260.66577 3.1004876e-17 -1.8958599)
(260.84382 6.8469523e-17 -1.6318521)
(261.04101 1.6771659e-17 -1.3966602)
(261.20366 -1.2339502e-17 -1.1950956)
(261.36877 7.2696052e-17 -0.96284497)
(261.69026 0 -0.59752937)
(262.1808 2.4020806e-16 -0.19482437)
(262.44901 1.2807983e-16 0.096747395)
(262.59653 -5.767729e-18 0.3784958)
(262.49263 5.6595465e-19 0.71999488)
(202.91129 0 -9.3942071)
(239.18824 -9.5684911e-19 -10.753979)
(262.94458 0 -12.028151)
(282.96412 0 -13.015986)
(300.25814 0 -14.174507)
(311.21265 1.2251512e-16 -14.609227)
(311.21268 -2.0688103e-16 -15.126731)
(312.23391 8.599456e-17 -14.387462)
(311.20136 7.1825847e-17 -15.356778)
(311.56122 -6.3362065e-17 -14.276638)
(310.81763 -3.1116432e-18 -15.363265)
(310.77523 9.3166725e-17 -14.341809)
(310.07947 -6.8857083e-17 -15.240968)
(309.68292 5.0236793e-17 -14.476979)
(308.90761 -4.763716e-17 -15.08254)
(308.17438 -3.9717766e-17 -14.593276)
(307.17817 3.2885131e-17 -14.917437)
(306.06109 4.1099665e-17 -14.632885)
(304.68671 -4.5304263e-17 -14.766347)
(303.06088 1.8799318e-17 -14.611221)
(301.13839 0 -14.623158)
(298.9176 -2.5782627e-17 -14.485533)
(296.4196 4.2119288e-17 -14.356076)
(293.61674 -5.2422844e-17 -14.09597)
(290.50949 5.6795369e-17 -13.753198)
(287.14458 0 -13.263223)
(283.6071 -3.7854198e-17 -12.619595)
(280.01247 1.222516e-16 -11.79994)
(276.50014 0 -10.820845)
(273.2047 0 -9.7188581)
(270.23822 -2.7903122e-16 -8.557771)
(267.67325 -7.3066275e-17 -7.4083584)
(265.54271 0 -6.3348218)
(263.8514 -1.1694966e-16 -5.3774575)
(262.58436 -1.5661754e-16 -4.5635838)
(261.62799 1.7054732e-17 -3.9134493)
(260.97493 -2.3049936e-16 -3.3869379)
(260.6475 0 -2.9139056)
(260.54654 -2.2808592e-16 -2.4982129)
(260.53341 -3.3759953e-16 -2.1671109)
(260.64823 0 -1.8903835)
(260.83382 0 -1.6221438)
(261.03337 0 -1.3871304)
(261.1957 0 -1.1869346)
(261.37325 -2.8985257e-16 -0.95026103)
(261.75216 0 -0.57729196)
(262.22837 -4.764921e-16 -0.17710135)
(262.48614 -1.2660444e-16 0.10428745)
(262.6135 -1.7574771e-16 0.37889152)
(262.46849 1.389992e-16 0.69387764)
(204.51487 0 -10.307617)
(240.92593 -2.4908282e-16 -11.806169)
(264.7736 2.0446814e-16 -13.190131)
(284.78131 2.7170981e-18 -14.243594)
(301.89314 0 -15.501583)
(311.98283 -1.2469345e-16 -15.866898)
(311.54328 1.0520075e-16 -16.428722)
(312.58333 -5.4644367e-18 -15.614793)
(311.52531 7.3050283e-17 -16.666033)
(311.89467 -4.9272785e-17 -15.512858)
(311.129 1.0126782e-16 -16.663364)
(311.08117 -8.935238e-17 -15.589889)
(310.37036 -8.7577341e-18 -16.526689)
(309.96069 7.2936784e-18 -15.730037)
(309.16624 0 -16.346486)
(308.40889 0 -15.842633)
(307.37537 -1.6750441e-17 -16.170563)
(306.19755 0 -15.894312)
(304.75373 4.6220096e-17 -16.037902)
(303.06208 -1.9047237e-17 -15.882346)
(301.09432 3.1623077e-17 -15.873128)
(298.83366 2.62179e-17 -15.702949)
(296.27534 -4.2989313e-17 -15.534974)
(293.39029 8.8294203e-17 -15.238117)
(290.20375 -5.7934281e-17 -14.842768)
(286.76451 -2.3754814e-17 -14.284478)
(283.16754 1.1504839e-16 -13.554333)
(279.53669 -1.7048101e-16 -12.632631)
(276.01649 2.2401492e-16 -11.540618)
(272.74231 1.3893053e-16 -10.322077)
(269.82102 1.4108732e-16 -9.0478229)
(267.31627 0 -7.7944838)
(265.25112 0 -6.6292937)
(263.62568 0 -5.5933823)
(262.41391 0 -4.7189014)
(261.47794 0 -4.0209005)
(260.87379 2.0628844e-16 -3.4529872)
(260.59249 0 -2.9484325)
(260.51127 2.2916823e-16 -2.5147571)
(260.50186 6.7769774e-16 -2.1711166)
(260.62922 -3.1174134e-17 -1.8844952)
(260.8229 3.6631733e-16 -1.6124134)
(261.025 1.3244801e-20 -1.3778144)
(261.1868 4.058553e-16 -1.1786152)
(261.37967 5.7771397e-16 -0.93571162)
(261.82466 -4.2527419e-16 -0.55687583)
(262.28256 9.9225949e-18 -0.16131233)
(262.52242 -7.363683e-18 0.11011271)
(262.62056 1.8400666e-16 0.37742724)
(262.44267 -1.4227609e-16 0.66499522)
(206.06547 3.4948109e-16 -11.24399)
(242.61289 0 -12.883961)
(266.54898 -2.0864379e-16 -14.383114)
(286.53982 3.5223458e-16 -15.504898)
(303.3999 -1.4859938e-16 -16.864334)
(312.60493 -3.9622652e-18 -17.144984)
(311.79897 0 -17.759783)
(312.85728 9.456786e-17 -16.86385)
(311.76867 -7.4207006e-17 -17.998252)
(312.14962 -8.2953526e-21 -16.767744)
(311.35815 0 -17.980911)
(311.29163 0 -16.856373)
(310.58014 2.6731289e-17 -17.830132)
(310.15457 1.4820316e-17 -17.001264)
(309.33274 -2.4755114e-17 -17.630448)
(308.53378 8.2018625e-17 -17.124163)
(307.44975 -1.6962123e-17 -17.469793)
(306.21521 0 -17.201208)
(304.72362 -2.3395328e-17 -17.333196)
(302.99609 -1.9367305e-17 -17.161676)
(300.98869 -3.2148614e-17 -17.125818)
(298.67254 0 -16.931768)
(296.03384 -2.1743681e-17 -16.731148)
(293.06505 -8.9667622e-17 -16.3924)
(289.79547 5.8797637e-17 -15.939965)
(286.28187 1.2020328e-16 -15.307601)
(282.6284 1.5626507e-16 -14.484788)
(278.96774 7.8729504e-17 -13.455214)
(275.4491 -1.7670511e-16 -12.245683)
(272.20741 -1.6074492e-16 -10.907849)
(269.34306 -3.1898765e-17 -9.5197773)
(266.9096 -1.49644e-16 -8.1636281)
(264.92022 -1.9288707e-17 -6.9088762)
(263.36975 2.3868539e-16 -5.7973054)
(262.21478 0 -4.8660555)
(261.31381 0 -4.1219033)
(260.76701 -4.1541017e-16 -3.5126346)
(260.52876 0 -2.9789144)
(260.46786 0 -2.5293215)
(260.46983 -3.1873709e-16 -2.1737743)
(260.60929 1.5610681e-17 -1.8772081)
(260.81187 -2.2932065e-17 -1.601822)
(261.01664 0 -1.3680442)
(261.17811 -3.682465e-16 -1.169386)
(261.39028 -2.8780559e-16 -0.9179236)
(261.90528 4.2282571e-16 -0.53510167)
(262.34269 3.02527e-16 -0.14718199)
(262.55575 -1.4533972e-17 0.1143182)
(262.62394 1.0971411e-17 0.37461699)
(262.41932 -2.1113035e-18 0.63672585)
(207.54128 -1.38562e-18 -12.205)
(244.21512 2.0299117e-18 -13.987849)
(268.23883 -2.1282599e-16 -15.604106)
(288.21534 1.8100568e-16 -16.794226)
(304.74238 -2.4029888e-18 -18.250629)
(313.07984 -1.2511496e-16 -18.430772)
(311.96823 2.1778679e-16 -19.106344)
(313.04699 5.7346938e-18 -18.119677)
(311.91416 -8.4881029e-17 -19.339525)
(312.3176 -1.3343183e-16 -18.031359)
(311.48818 1.0454698e-16 -19.311107)
(311.42962 9.7991135e-17 -18.137132)
(310.69548 -9.0538378e-17 -19.14976)
(310.2448 -6.0384707e-17 -18.300005)
(309.38688 2.5001699e-17 -18.956324)
(308.54576 -2.0852731e-17 -18.452433)
(307.4227 3.4655126e-17 -18.796801)
(306.15646 0 -18.521065)
(304.63581 4.771589e-17 -18.633332)
(302.86579 0 -18.446038)
(300.80144 0 -18.391605)
(298.41177 2.7099052e-17 -18.175864)
(295.69221 6.6838226e-17 -17.94004)
(292.6364 -1.4613468e-16 -17.556334)
(289.28261 1.1966235e-16 -17.041408)
(285.69574 -9.7404232e-17 -16.328882)
(281.99014 -1.5809767e-16 -15.406889)
(278.30752 -1.2758907e-16 -14.263507)
(274.80112 2.5723716e-17 -12.932064)
(271.60403 -2.0257935e-17 -11.472665)
(268.8087 -2.5766829e-16 -9.9707309)
(266.45752 2.0143667e-16 -8.5134487)
(264.55431 -1.9600182e-17 -7.1717504)
(263.08728 -7.075663e-16 -5.9883263)
(261.98843 3.6764391e-16 -5.0035835)
(261.1396 0 -4.2152295)
(260.65409 3.9174765e-16 -3.5657192)
(260.45796 6.4304372e-16 -3.0053747)
(260.41706 -4.6231754e-16 -2.5416121)
(260.43779 2.1307715e-17 -2.174991)
(260.58846 -4.6961238e-17 -1.8686839)
(260.80043 3.668876e-16 -1.5904933)
(261.00795 5.5311643e-16 -1.3579361)
(261.1701 0 -1.1592853)
(261.4068 5.5522659e-16 -0.89709283)
(261.98682 1.3147394e-17 -0.51203328)
(262.40355 0 -0.13502506)
(262.58752 0 0.11648536)
(262.62539 5.3917557e-18 0.37024464)
(262.39442 -2.6771373e-16 0.60830223)
(208.94361 2.8190833e-18 -13.189096)
(245.74505 -2.0705882e-18 -15.116881)
(269.85542 0 -16.853831)
(289.82592 -2.882997e-18 -18.114458)
(305.92236 1.5647596e-16 -19.662114)
(313.42522 -2.6278197e-16 -19.729188)
(312.05994 1.1068633e-16 -20.47545)
(313.16301 -9.7732779e-17 -19.393265)
(312.00747 2.3027064e-16 -20.700805)
(312.39749 -1.2749744e-16 -19.314499)
(311.56529 0 -20.664623)
(311.49939 7.7509737e-17 -19.444127)
(310.71178 -7.3622132e-17 -20.503814)
(310.23548 4.6065635e-17 -19.638537)
(309.34867 -1.0203436e-16 -20.30768)
(308.48276 6.3522767e-17 -19.794837)
(307.3371 -3.531374e-17 -20.128792)
(306.04008 2.9164533e-17 -19.84204)
(304.47963 4.8519151e-17 -19.941453)
(302.65123 -8.0377122e-17 -19.746981)
(300.51862 0 -19.67218)
(298.05173 0 -19.43321)
(295.24613 -1.5797081e-16 -19.159941)
(292.10124 1.484647e-16 -18.726714)
(288.66224 -2.2746112e-16 -18.143589)
(285.00411 -2.4580006e-17 -17.344147)
(281.25197 0 -16.316048)
(277.55651 -2.5950926e-16 -15.052788)
(274.07413 0 -13.595238)
(270.9344 0 -12.012483)
(268.22034 2.6033517e-16 -10.39725)
(265.96246 0 -8.8410659)
(264.1559 0 -7.4155991)
(262.7801 5.1619691e-16 -6.1651029)
(261.73712 -3.9342798e-16 -5.1298123)
(260.9558 0 -4.2992714)
(260.53515 3.9418138e-16 -3.611794)
(260.3823 1.9691209e-17 -3.027552)
(260.35894 9.2804998e-16 -2.5509523)
(260.4027 -4.2727744e-17 -2.1742919)
(260.56689 -4.3902855e-16 -1.8588735)
(260.78865 -1.5137617e-15 -1.5783279)
(260.99904 -1.0547793e-15 -1.3473806)
(261.16379 0 -1.1480858)
(261.43194 -5.7065797e-16 -0.8735866)
(262.0629 1.3029609e-17 -0.48760336)
(262.46064 6.2269951e-16 -0.12449741)
(262.62503 4.395734e-16 0.1166677)
(262.63008 0 0.3640801)
(262.36701 2.5766135e-16 0.57997989)
(210.27554 -5.7018756e-18 -14.194014)
(247.20379 -2.6992627e-16 -16.266308)
(271.40137 0 -18.125509)
(291.38318 -1.7934625e-16 -19.457674)
(306.93555 3.1339076e-16 -21.086927)
(313.65475 -2.7574478e-16 -21.033781)
(312.0939 -9.9304025e-20 -21.866011)
(313.20314 8.1728341e-17 -20.692476)
(312.03294 1.9502842e-17 -22.098654)
(312.43073 0 -20.637655)
(311.56205 9.4719741e-17 -22.057862)
(311.4808 -6.7371428e-17 -20.78292)
(310.65266 0 -21.8763)
(310.16086 0 -20.989648)
(309.25559 0 -21.663291)
(308.36592 -4.3114977e-17 -21.138335)
(307.19076 -3.5811024e-17 -21.465262)
(305.84979 2.9809277e-17 -21.17806)
(304.23535 -4.9266736e-17 -21.265959)
(302.34337 1.4269184e-16 -21.062573)
(300.1378 6.7518378e-17 -20.966543)
(297.58812 -2.7723281e-17 -20.702135)
(294.69325 1.1477462e-16 -20.387831)
(291.45692 2.2532849e-19 -19.900252)
(287.93262 2.3143838e-16 -19.242572)
(284.20633 0 -18.348951)
(280.41459 0 -17.207493)
(276.71683 5.5890945e-16 -15.818301)
(273.27127 -2.6146452e-17 -14.230816)
(270.20219 3.3495054e-16 -12.523524)
(267.58172 0 -10.796227)
(265.42823 2.5817886e-17 -9.1439428)
(263.72862 6.1893971e-16 -7.6384831)
(262.44998 -4.9048211e-16 -6.3264383)
(261.46469 2.3354546e-17 -5.2435123)
(260.76369 -1.7601247e-17 -4.3727666)
(260.4111 -4.2264152e-16 -3.6504921)
(260.29991 -1.2979373e-15 -3.045316)
(260.29457 4.9480726e-16 -2.5569931)
(260.36265 -2.1412396e-17 -2.1711312)
(260.54464 4.8663083e-16 -1.8476705)
(260.77648 7.3390293e-16 -1.5652804)
(260.98984 5.6843907e-16 -1.3362744)
(261.16 -1.2182873e-17 -1.1355042)
(261.46808 0 -0.84810002)
(262.13091 0 -0.46211428)
(262.5115 -6.0749004e-16 -0.11512382)
(262.66065 -4.4811133e-16 0.11527511)
(262.64307 0 0.35574558)
(262.33587 -5.0394309e-16 0.55151287)
(211.53762 -3.7101189e-16 -15.220408)
(248.59101 2.7495998e-16 -17.438435)
(272.87195 0 -19.423506)
(292.88641 -1.976838e-16 -20.83636)
(307.77244 1.6691937e-16 -22.542503)
(313.77506 1.4454974e-16 -22.365865)
(312.05428 -1.1439463e-16 -23.293265)
(313.16836 1.2500652e-21 -22.022849)
(311.97121 1.3886979e-16 -23.525322)
(312.36905 1.9740596e-19 -21.982547)
(311.47902 -1.0982291e-16 -23.46628)
(311.40446 1.0208707e-21 -22.134705)
(310.54409 7.625993e-17 -23.252643)
(310.03425 -3.1492369e-17 -22.341835)
(309.10455 1.8606949e-19 -23.023379)
(308.18044 9.0296893e-20 -22.49698)
(306.96445 -3.6414084e-17 -22.818952)
(305.57221 0 -22.530522)
(303.9002 -2.4947152e-17 -22.605367)
(301.93927 -2.0557029e-17 -22.392674)
(299.65568 3.4460443e-17 -22.273131)
(297.019 -2.8166538e-17 -21.980392)
(294.03103 0 -21.620957)
(290.70139 1.9252924e-17 -21.073372)
(287.0924 1.4179934e-16 -20.334168)
(283.30226 -2.0416666e-16 -19.338552)
(279.47932 3.1099919e-16 -18.076238)
(275.79111 -2.6629409e-16 -16.555194)
(272.39608 0 -14.834439)
(269.41135 8.4786372e-19 -13.002127)
(266.89691 0 -11.164704)
(264.85905 -3.9071429e-16 -9.4197338)
(263.27597 -1.3090029e-15 -7.8387644)
(262.09684 4.9408185e-16 -6.4709548)
(261.17587 -7.2887693e-16 -5.3436359)
(260.5654 -3.5454455e-17 -4.4347402)
(260.28312 -1.3287719e-17 -3.6815689)
(260.21048 6.3180119e-16 -3.0583547)
(260.22573 -9.1935802e-16 -2.5595734)
(260.32261 2.1453287e-17 -2.165112)
(260.5218 -1.5716236e-17 -1.8348556)
(260.76391 -2.2914881e-17 -1.5512977)
(260.98039 1.6696882e-17 -1.3244785)
(261.15934 8.0106564e-16 -1.1211476)
(261.51611 -3.5305821e-17 -0.82132257)
(262.19101 1.2879104e-17 -0.43612534)
(262.55654 0 -0.10665774)
(262.69296 1.3821401e-17 0.11293182)
(262.66338 6.5612063e-16 0.34520353)
(262.30307 9.778961e-16 0.52247255)
(212.74252 0 -16.274324)
(249.91433 4.3765837e-18 -18.641251)
(274.27342 2.297355e-16 -20.757662)
(294.3476 -6.0048292e-18 -22.256958)
(308.44238 -3.2926381e-16 -24.023279)
(313.80433 -1.0328319e-19 -23.712606)
(311.93979 1.1625226e-16 -24.735244)
(313.07696 2.1729545e-16 -23.358762)
(311.83968 -3.1224111e-16 -24.951961)
(312.24233 -2.0585e-19 -23.325736)
(311.3314 2.3736346e-16 -24.872794)
(311.23582 -1.1604641e-16 -23.490763)
(310.37475 1.9352287e-17 -24.641303)
(309.83806 9.6665264e-17 -23.714355)
(308.87605 -5.3468137e-17 -24.402177)
(307.91179 -7.2620379e-20 -23.873898)
(306.65194 3.6787804e-17 -24.188045)
(305.20483 3.0608736e-17 -23.899135)
(303.47039 7.6366451e-17 -23.959295)
(301.43613 2.113233e-17 -23.735667)
(299.0699 0 -23.59013)
(296.34183 -1.1522395e-16 -23.26557)
(293.25747 1.6594128e-16 -22.856178)
(289.83307 1.9315917e-17 -22.242262)
(286.14099 8.0524991e-19 -21.413881)
(282.29264 2.3303357e-16 -20.307968)
(278.4484 -3.5619623e-16 -18.917157)
(274.7829 2.8788862e-16 -17.25863)
(271.45292 -1.3429483e-17 -15.401895)
(268.56656 -3.4252393e-16 -13.444856)
(266.17072 5.4015138e-16 -11.49997)
(264.25983 -7.7474836e-19 -9.6664146)
(262.80128 6.4989162e-16 -8.0152966)
(261.71964 0 -6.5970508)
(260.87679 7.5699939e-16 -5.4292688)
(260.36356 -1.7128875e-15 -4.4846201)
(260.15186 0 -3.7050051)
(260.11245 -6.3431997e-16 -3.0662549)
(260.15385 9.3660585e-16 -2.5584632)
(260.27986 -7.0933014e-16 -2.1560993)
(260.49848 4.7142667e-17 -1.8202817)
(260.75097 7.1005451e-16 -1.5363369)
(260.97065 0 -1.3118458)
(261.16197 -7.7403913e-16 -1.1045994)
(261.57325 1.7538215e-17 -0.79359062)
(262.24629 8.1664245e-16 -0.41034072)
(262.59799 -9.3154132e-18 -0.099001843)
(262.72306 0 0.10983497)
(262.68499 -6.5524578e-16 0.33264185)
(262.27295 -4.7068472e-16 0.49255663)
(213.90728 3.8694877e-16 -17.352336)
(251.18723 -8.9128321e-18 -19.865491)
(275.61224 -2.3770761e-16 -22.113682)
(295.77189 1.9859468e-16 -23.695432)
(308.94997 -1.6224234e-16 -25.504279)
(313.75389 1.4052975e-16 -25.057372)
(311.76056 2.3640961e-16 -26.177765)
(312.92584 -1.9599887e-16 -24.694053)
(311.64247 2.0469345e-17 -26.385229)
(312.06531 0 -24.678675)
(311.11022 2.8379249e-17 -26.293313)
(310.9957 2.3614847e-17 -24.869366)
(310.12468 1.9762082e-17 -26.051157)
(309.55958 -3.2582058e-17 -25.106416)
(308.56432 1.0898403e-16 -25.796266)
(307.55768 -9.0359617e-17 -25.267825)
(306.2505 -7.5226025e-17 -25.572397)
(304.74467 -6.2449275e-17 -25.282757)
(302.94376 1.7529596e-19 -25.326357)
(300.83164 -8.561227e-17 -25.090032)
(298.37816 -1.7745379e-16 -24.915463)
(295.55463 2.8760242e-17 -24.554999)
(292.37084 5.6928253e-19 -24.090175)
(288.85092 1.582884e-16 -23.402837)
(285.07844 -2.5803032e-16 -22.476953)
(281.17899 2.1083787e-16 -21.252004)
(277.3249 0 -19.725044)
(273.69645 -2.5653304e-16 -17.923838)
(270.44671 -4.798874e-16 -15.929158)
(267.67311 3.4744445e-16 -13.848524)
(265.40869 -5.2789695e-16 -11.799603)
(263.63566 -4.2611732e-16 -9.882331)
(262.30708 0 -8.1673797)
(261.31917 0 -6.7031763)
(260.5734 2.383791e-17 -5.4994414)
(260.16044 2.8695568e-15 -4.5222596)
(260.01627 -9.2478301e-16 -3.7207436)
(260.00684 6.5617437e-16 -3.0688041)
(260.08016 4.4158097e-17 -2.553276)
(260.23609 2.0444483e-15 -2.1440099)
(260.4748 0 -1.8038771)
(260.73774 -7.5501428e-16 -1.5203676)
(260.9606 1.6620663e-17 -1.298233)
(261.16783 -7.7092987e-16 -1.085623)
(261.63624 -1.7438363e-17 -0.76495118)
(262.29993 -7.9788525e-16 -0.38526635)
(262.63699 -1.8417666e-17 -0.092160718)
(262.75153 8.7524448e-16 0.10604547)
(262.70624 0 0.31818148)
(262.24548 -3.6902021e-18 0.46163076)
(215.02619 7.9018445e-16 -18.451873)
(252.39665 -2.8578518e-16 -21.108501)
(276.86825 3.7239457e-18 -23.492305)
(297.13692 6.3143309e-18 -25.163634)
(309.28474 5.3237254e-18 -26.99986)
(313.60858 -8.9336267e-18 -26.414683)
(311.51249 2.5516431e-16 -27.642499)
(312.70183 -2.1155514e-16 -26.05037)
(311.38491 -4.1580489e-17 -27.84075)
(311.80607 -1.3840008e-16 -26.049206)
(310.82465 8.6371772e-17 -27.728928)
(310.69626 -2.397592e-17 -26.261999)
(309.79395 1.1993966e-16 -27.471985)
(309.19885 -9.9571763e-17 -26.514572)
(308.16812 -1.1059944e-16 -27.204761)
(307.11589 4.6073272e-17 -26.677848)
(305.75812 3.8240228e-17 -26.970886)
(304.18981 1.2681117e-16 -26.68029)
(302.3181 -1.3141804e-16 -26.705218)
(300.12371 -2.1788412e-17 -26.45391)
(297.57848 1.0797256e-16 -26.246849)
(294.65558 2.375946e-16 -25.845775)
(291.36982 -1.9525026e-16 -25.319337)
(287.75442 -1.6021601e-16 -24.550733)
(283.90553 -3.3008766e-17 -23.51836)
(279.96368 -6.1478096e-16 -22.165295)
(276.11268 -3.4645246e-16 -20.494671)
(272.53674 -5.5704791e-16 -18.546178)
(269.38316 4.1514846e-16 -16.412445)
(266.73711 -3.0688399e-16 -14.210257)
(264.61691 -1.7164022e-17 -12.061554)
(262.99121 8.5715691e-16 -10.06624)
(261.79459 2.0704522e-17 -8.2943743)
(260.9011 -1.5783048e-17 -6.788413)
(260.26983 -7.9144185e-16 -5.5531662)
(259.95767 3.6704314e-17 -4.5479209)
(259.87378 8.7438412e-16 -3.7284342)
(259.89652 -1.9946939e-17 -3.065954)
(260.00514 1.6497654e-19 -2.5437263)
(260.19144 -1.378406e-15 -2.1287521)
(260.45097 3.1411529e-17 -1.7855849)
(260.72432 -2.2858521e-17 -1.5033794)
(260.95027 -1.0602376e-15 -1.2835065)
(261.17693 7.9166401e-16 -1.0640337)
(261.70453 -4.3704528e-20 -0.73558508)
(262.35297 7.913308e-16 -0.36123229)
(262.67343 -1.822785e-17 -0.086087444)
(262.77804 1.3186194e-17 0.10167811)
(262.72667 0 0.3019302)
(262.22004 0 0.42981667)
(216.08803 -3.1251628e-18 -19.579639)
(253.53768 -2.9559094e-16 -22.381645)
(278.03595 2.3514072e-16 -24.905205)
(298.43028 -4.111985e-16 -26.664268)
(309.44944 3.3523982e-16 -28.511774)
(313.3455 -2.7242181e-16 -27.789306)
(311.20108 2.2841667e-16 -29.12734)
(312.40513 2.0246469e-16 -27.423189)
(311.05091 -3.167439e-16 -29.314195)
(311.47402 1.4034658e-16 -27.437657)
(310.46053 -1.1723788e-16 -29.181606)
(310.31462 1.7051181e-16 -27.671704)
(309.38331 -1.6232786e-16 -28.906272)
(308.75476 6.7400913e-17 -27.939486)
(307.68594 5.6137168e-17 -28.627356)
(306.58486 4.6811493e-17 -28.103377)
(305.17304 -7.7452968e-17 -28.382655)
(303.53842 -9.6442336e-17 -28.090413)
(301.59165 -1.0694714e-16 -28.094284)
(299.31057 -2.3655983e-19 -27.82532)
(296.66916 0 -27.58182)
(293.64322 -3.9258788e-16 -27.13478)
(290.25346 4.964357e-17 -26.5398)
(286.54364 -2.0228378e-17 -25.681301)
(282.62374 -3.3516385e-17 -24.532841)
(278.64986 2.5045368e-17 -23.042359)
(274.81638 3.5000547e-16 -21.220851)
(271.30952 1.1094449e-15 -19.121197)
(268.26881 4.6409467e-16 -16.848273)
(265.76546 0 -14.527561)
(263.80158 0 -12.284217)
(262.33004 0 -10.217308)
(261.2641 -6.4675089e-16 -8.3952643)
(260.47462 -1.0354544e-15 -6.8525117)
(259.96918 2.3454813e-17 -5.5898958)
(259.75513 -1.1770389e-15 -4.5619356)
(259.7228 0 -3.7277418)
(259.78423 1.2801411e-15 -3.0575348)
(259.9295 1.6639818e-19 -2.5296868)
(260.14654 2.1539319e-17 -2.1102931)
(260.42728 -1.5711444e-17 -1.7653905)
(260.71087 1.459404e-15 -1.485382)
(260.93984 1.0569222e-15 -1.2675539)
(261.18969 -2.3852824e-17 -1.0397004)
(261.77858 -1.0690317e-15 -0.70576763)
(262.40589 -8.0995378e-16 -0.33858687)
(262.70724 1.8036198e-17 -0.080756169)
(262.80144 -1.3208561e-17 0.096963471)
(262.74473 -1.2259639e-15 0.28414048)
(262.19547 7.0660871e-18 0.39735918)
(217.08314 4.0681046e-16 -20.725001)
(254.60707 -3.0536869e-16 -23.667246)
(279.11425 7.721051e-18 -26.335941)
(299.63721 0 -28.18042)
(309.45025 3.4109078e-16 -30.024685)
(312.96259 -3.1348917e-16 -29.169605)
(310.81296 0 -30.628335)
(312.03391 -2.0563997e-16 -28.808982)
(310.64193 1.9289887e-16 -30.803979)
(311.06446 -1.428066e-16 -28.842963)
(310.01918 8.9072551e-17 -30.650154)
(309.85361 2.4734019e-17 -29.099813)
(308.89034 4.1318106e-17 -30.355227)
(308.22545 2.5046838e-19 -29.381274)
(307.11616 -5.6947635e-17 -30.06349)
(305.96309 -9.4987188e-17 -29.543412)
(304.49387 7.8746225e-17 -29.806492)
(302.7891 0 -29.511669)
(300.76292 -2.7529727e-17 -29.491883)
(298.3907 1.5721469e-16 -29.202134)
(295.64875 7.4562981e-17 -28.917752)
(292.51639 2.7519069e-16 -28.418683)
(289.02126 1.7682547e-16 -27.747432)
(285.21919 -2.8194976e-19 -26.789615)
(281.23529 1.6780421e-17 -25.514925)
(277.24144 4.6670288e-16 -23.877649)
(273.4414 3.3442027e-16 -21.898499)
(270.0214 -5.6994997e-16 -19.644691)
(267.11111 -4.5410486e-16 -17.233541)
(264.76544 0 -14.798407)
(262.96821 -5.6356013e-16 -12.466455)
(261.65427 2.7343809e-17 -10.335037)
(260.71728 6.507764e-16 -8.468892)
(260.04977 1.0250826e-15 -6.8955309)
(259.674 -7.7686454e-16 -5.6098066)
(259.54977 0 -4.5642883)
(259.5655 0 -3.7187643)
(259.67159 -1.9660936e-17 -3.0432105)
(259.85393 -9.2829152e-16 -2.5111494)
(260.10184 0 -2.0886156)
(260.40418 0 -1.7433102)
(260.69754 -2.9351596e-15 -1.4664027)
(260.92987 1.069708e-15 -1.2502951)
(261.20725 0 -1.0126043)
(261.85898 1.0965893e-15 -0.67581492)
(262.45903 0 -0.31774542)
(262.73823 0 -0.076269437)
(262.82021 -7.4112369e-20 0.092090879)
(262.75784 2.4105998e-15 0.26516185)
(262.17056 0 0.3643261)
(218.00986 -4.1349249e-16 -21.893264)
(255.60391 -3.0611384e-16 -24.973866)
(280.11178 5.0319346e-16 -27.795423)
(300.74613 -4.248246e-16 -29.717533)
(309.29524 7.2693005e-16 -31.549307)
(312.5302 -5.9979754e-16 -30.565024)
(310.34803 2.5126599e-16 -32.148774)
(311.58504 2.0884569e-16 -30.210218)
(310.15413 -1.7407401e-16 -32.309915)
(310.57484 0 -30.265166)
(309.49685 3.0179679e-17 -32.133615)
(309.30953 -5.032251e-17 -30.545462)
(308.31354 4.1830334e-17 -31.817378)
(307.60978 0 -30.838975)
(306.45781 5.8027252e-17 -31.512063)
(305.24965 4.7968016e-17 -30.996794)
(303.71954 -2.4676595e-19 -31.241153)
(301.94068 1.6623714e-16 -30.942511)
(299.83063 1.3773414e-16 -30.89622)
(297.36278 -6.8557683e-17 -30.582088)
(294.51606 -1.1313701e-16 -30.251822)
(291.27428 2.4957233e-16 -29.693924)
(287.67319 9.0938763e-19 -28.937844)
(283.78233 0 -27.870487)
(279.74312 2.7533866e-16 -26.458954)
(275.74312 0 -24.665587)
(271.99402 -3.3721879e-16 -22.522667)
(268.67998 5.800331e-16 -20.112757)
(265.91825 -4.7561857e-16 -17.565598)
(263.74395 0 -15.021242)
(262.12078 1.1367831e-15 -12.607506)
(260.96543 8.5469343e-16 -10.419023)
(260.16145 -6.5676454e-16 -8.5148125)
(259.63413 0 -6.917487)
(259.38496 7.7888967e-16 -5.6136813)
(259.33787 0 -4.5545952)
(259.4062 -8.6990093e-16 -3.7017903)
(259.55937 -1.3051636e-15 -3.0227739)
(259.77911 1.4753759e-17 -2.4881165)
(260.05784 0 -2.0637223)
(260.38211 -3.1315388e-17 -1.7193741)
(260.68449 1.4752157e-15 -1.4464744)
(260.92142 -1.0492456e-15 -1.2316882)
(261.23191 -1.48901e-15 -0.98298572)
(261.9455 1.0715491e-15 -0.64597917)
(262.51247 0 -0.29912395)
(262.76608 1.12974e-15 -0.072796152)
(262.8333 -2.4495256e-15 0.087140896)
(262.76436 -1.1849495e-15 0.24521691)
(262.14413 -8.6540618e-16 0.33054548)
(218.86003 -6.569875e-18 -23.087973)
(256.52482 6.2740803e-16 -26.307211)
(281.02975 -5.1222472e-16 -29.291068)
(301.72605 0 -31.2772)
(308.99008 3.7543555e-16 -33.090538)
(312.04541 -5.9018956e-16 -31.974706)
(309.80555 5.1051442e-16 -33.685347)
(311.05864 2.8435203e-19 -31.624146)
(309.58763 -2.2101423e-16 -33.830263)
(310.00486 0 -31.702747)
(308.89366 1.22832e-16 -33.62984)
(308.68251 -1.0206262e-16 -32.007364)
(307.65264 0 -33.291543)
(306.90738 7.089901e-17 -32.311558)
(305.71039 -1.1754146e-16 -32.972006)
(304.44389 0 -32.462335)
(302.84919 0 -32.685426)
(300.99211 -1.3482736e-16 -32.3814)
(298.79359 -2.8109759e-17 -32.305473)
(296.22557 2.3058834e-17 -31.962796)
(293.27001 1.1509517e-16 -31.581012)
(289.9163 -2.2100229e-16 -30.956681)
(286.20963 -2.076637e-16 -30.106358)
(282.23489 -2.1474085e-17 -28.918482)
(278.15087 -2.257493e-16 -27.359141)
(274.1604 4.2605899e-16 -25.400629)
(270.48148 3.6657041e-16 -23.088626)
(267.29384 2.5270297e-18 -20.521912)
(264.69836 4.6505143e-16 -17.842319)
(262.70649 0 -15.194948)
(261.26187 -5.9101779e-16 -12.706849)
(260.26671 -8.7388411e-16 -10.468774)
(259.60887 6.8160466e-16 -8.5337348)
(259.23118 1.0713432e-15 -6.9185689)
(259.09857 7.342675e-16 -5.6018772)
(259.12062 1.8332112e-17 -4.5331849)
(259.24775 8.9899686e-16 -3.6767462)
(259.44845 -2.0119391e-17 -2.9962489)
(259.70565 0 -2.4606231)
(260.01505 -1.3565712e-15 -2.035651)
(260.36085 -1.5648385e-17 -1.6935125)
(260.67185 1.4482948e-15 -1.425599)
(260.91604 1.6316103e-17 -1.2116901)
(261.26757 1.4927003e-15 -0.95154191)
(262.03616 -2.1449899e-15 -0.61635199)
(262.56559 -1.2150726e-17 -0.2830268)
(262.79035 -1.1173106e-15 -0.070444206)
(262.84027 1.610688e-15 0.082176733)
(262.76456 1.1557791e-15 0.22441513)
(262.11518 1.7012107e-15 0.29606144)
(219.62853 -1.0913848e-20 -24.301151)
(257.37071 -6.3816253e-16 -27.654216)
(281.87985 -2.3789909e-19 -30.813346)
(302.53131 4.3823521e-16 -32.846178)
(308.5486 -3.8175988e-16 -34.643218)
(311.4771 2.9959841e-16 -33.392848)
(309.18636 0 -35.238925)
(310.45521 0 -33.05213)
(308.94283 -1.7985013e-16 -35.366253)
(309.35518 1.4928868e-16 -33.156034)
(308.21014 -1.247361e-16 -35.138089)
(307.97281 1.5534295e-16 -33.484713)
(306.90782 -8.6510671e-17 -34.776683)
(306.11822 1.4372113e-16 -33.798085)
(304.87361 2.2214583e-19 -34.442418)
(303.54525 -4.9847055e-17 -33.93895)
(301.882 8.2598827e-17 -34.138144)
(299.94235 -6.8562041e-17 -33.826761)
(297.65061 5.6854485e-17 -33.717702)
(294.9779 2.3906311e-17 -33.341707)
(291.90969 -1.5492487e-16 -32.902077)
(288.44213 4.1387244e-19 -32.202846)
(284.63138 -2.1158789e-16 -31.247979)
(280.57933 -2.149779e-17 -29.927919)
(276.46292 -3.559053e-17 -28.209594)
(272.49968 -4.2984148e-16 -26.077305)
(268.91211 -3.93063e-16 -23.591947)
(265.87209 -1.1686903e-15 -20.869208)
(263.45843 9.4445129e-16 -18.062066)
(261.6566 7.4329445e-16 -15.318689)
(260.39424 0 -12.764153)
(259.56636 2.8015151e-17 -10.484392)
(259.07048 -1.4175103e-15 -8.5267261)
(258.84103 -1.0271286e-15 -6.8996024)
(258.80972 1.5746281e-15 -5.5740824)