/*--------------------------------*- C++ -*----------------------------------*\
  =========                 |
  \\      /  F ield         | OpenFOAM: The Open Source CFD Toolbox
   \\    /   O peration     | Website:  https://openfoam.org
    \\  /    A nd           | Version:  8
     \\/     M anipulation  |
\*---------------------------------------------------------------------------*/
FoamFile
{
    version     2.0;
    format      ascii;
    class       volVectorField;
    location    "0.199992";
    object      wallShearStress;
}
// * * * * * * * * * * * * * * * * * * * * * * * * * * * * * * * * * * * * * //

dimensions      [1 -1 -2 0 0 0 0];

internalField   uniform (0 0 0);

boundaryField
{
    aerofoil
    {
        type            calculated;
        value           nonuniform List<vector> 
300
(
(-132.00486 -8.183851e-23 6.6794978)
(-132.99369 7.3943252e-23 7.2474467)
(-135.14366 3.2144613e-20 7.9146689)
(-137.11103 -1.2277803e-33 8.5947409)
(-139.07072 -2.3599066e-16 9.2998093)
(-140.9657 9.4247519e-19 10.027566)
(-142.81044 -1.9757076e-18 10.778577)
(-144.59689 3.8876275e-18 11.550649)
(-146.33122 2.5676775e-16 12.345113)
(-148.01911 4.8148249e-35 13.166391)
(-149.68312 -2.7112251e-16 14.012263)
(-151.31656 -5.5632632e-16 14.882467)
(-152.91296 2.2152456e-18 15.78021)
(-154.45401 -2.8975909e-16 16.698381)
(-155.94144 2.9601366e-16 17.641101)
(-157.36402 4.8123478e-18 18.609335)
(-158.71084 3.664816e-19 19.598115)
(-159.97767 -9.559858e-16 20.610033)
(-161.15263 6.4392951e-16 21.641527)
(-162.25294 6.6252753e-16 22.697964)
(-163.27946 0 23.781183)
(-164.23967 4.0279432e-19 24.891113)
(-165.153 3.4988525e-16 26.033334)
(-166.02347 -8.9527881e-20 27.206235)
(-166.87537 -1.8888906e-22 28.422277)
(-167.69669 -3.7109994e-16 29.674499)
(-168.51155 -1.348151e-33 30.970304)
(-169.32122 -3.3090287e-21 32.313843)
(-170.10364 1.0077404e-20 33.701658)
(-170.86679 -4.1387288e-16 35.14224)
(-171.59754 1.274655e-17 36.637985)
(-172.2752 4.1703505e-16 38.185322)
(-172.86617 -8.4979448e-16 39.778193)
(-173.37407 9.2444637e-33 41.42339)
(-173.81248 -1.7533469e-20 43.134178)
(-174.18434 1.5912382e-18 44.912643)
(-174.48817 2.1666712e-34 46.759205)
(-174.74851 1.4637758e-17 48.685997)
(-174.99774 -1.6058114e-17 50.698762)
(-175.21451 -4.8353403e-16 52.798056)
(-175.32543 -4.9504912e-16 54.98831)
(-175.30497 -5.0208004e-16 57.272516)
(-175.10001 5.219859e-16 59.632445)
(-174.66958 4.8697922e-16 62.032918)
(-173.97038 5.2813057e-16 64.478448)
(-172.98607 2.0704907e-17 66.983118)
(-171.67745 -7.0682689e-18 69.54567)
(-170.02874 1.4415973e-17 72.168886)
(-168.01601 -6.0488335e-16 74.850163)
(-165.61624 1.7826521e-17 77.585056)
(-162.81957 -4.4296389e-33 80.38743)
(-159.61081 -2.0745787e-17 83.263495)
(-155.9666 6.2588578e-16 86.185415)
(-151.90853 1.2310261e-17 89.119289)
(-147.48705 6.1867206e-16 92.017959)
(-142.79965 -1.9793788e-17 94.801219)
(-137.95214 -1.2926935e-15 97.413724)
(-132.80024 -6.4401095e-16 99.774995)
(-127.12664 -1.724172e-19 101.75144)
(-120.78894 1.3526558e-15 103.20827)
(-113.72945 3.1882146e-17 104.02109)
(-105.91285 -2.151989e-17 104.06205)
(-97.287785 -1.9726779e-19 103.05546)
(-87.744044 1.1505905e-17 100.79971)
(-77.350061 7.033616e-16 97.128339)
(-66.216291 6.0185311e-36 91.614011)
(-54.586258 1.1355935e-17 83.917394)
(-42.877426 -2.2318009e-17 73.812959)
(-31.455263 -1.011235e-18 61.12637)
(-20.044278 -3.4076119e-16 45.927069)
(-10.720949 -3.0655683e-16 29.005849)
(-5.0034165 1.2069024e-19 13.063217)
(-1.8454751 -9.7142334e-17 3.282066)
(-0.90457774 -2.1485431e-18 -1.0662173)
(-1.680368 -4.8148249e-35 -9.5643865)
(-1.8863575 3.0623533e-16 -0.77931188)
(-7.0845445 1.1040293e-20 -0.60285729)
(-7.8106523 7.3644089e-16 -0.71498248)
(-10.094013 -1.8665102e-21 -0.90707271)
(-11.9184 2.3877683e-21 -1.0579377)
(-13.905841 4.4077285e-16 -1.216215)
(-15.811716 4.5793258e-16 -1.3615556)
(-17.714031 4.7372756e-16 -1.5008324)
(-19.571846 4.8770437e-16 -1.6305222)
(-21.391792 -3.9140753e-20 -1.7523297)
(-23.167582 1.9730489e-19 -1.8653668)
(-24.892129 -5.223284e-16 -1.9694764)
(-26.563961 -8.2526154e-22 -2.0650906)
(-28.193703 5.4075528e-16 -2.1532049)
(-29.792324 -5.224115e-22 -2.2340988)
(-31.363623 5.3185328e-22 -2.3090615)
(-32.909388 -1.860718e-19 -2.3782835)
(-34.427161 -5.7065619e-16 -2.441401)
(-35.921017 -1.9156075e-19 -2.4991375)
(-37.395301 1.9578517e-19 -2.5515958)
(-38.84886 -2.9443477e-16 -2.5993421)
(-40.282598 -2.9721973e-16 -2.6418864)
(-41.69568 2.9987373e-16 -2.6800119)
(-43.092694 -1.8247655e-19 -2.7130909)
(-44.47808 3.0465654e-16 -2.7420677)
(-45.861848 -3.0724884e-16 -2.7666296)
(-47.243988 3.0956532e-16 -2.7879303)
(-48.626415 1.4614584e-21 -2.8049063)
(-50.006261 3.1402424e-16 -2.8182713)
(-51.387591 1.2078537e-21 -2.8271671)
(-52.766089 3.1850074e-16 -2.8318582)
(-54.145047 -1.2202114e-21 -2.8333017)
(-55.527958 -6.4467138e-16 -2.8297118)
(-56.909125 3.2422353e-16 -2.8214888)
(-58.294381 -2.3635808e-19 -2.8087656)
(-59.68868 3.2810688e-16 -2.7918153)
(-61.096328 -2.5174326e-21 -2.7702073)
(-62.515688 -1.2596012e-21 -2.7437948)
(-63.946601 2.549092e-21 -2.7119622)
(-65.388811 -1.0439491e-19 -2.6752687)
(-66.845097 -3.3733861e-16 -2.6328598)
(-68.310808 1.291074e-19 -2.5843701)
(-69.783984 6.0744003e-20 -2.5293781)
(-71.266254 -5.2257172e-21 -2.4682098)
(-72.764032 -3.443864e-16 -2.3995488)
(-74.282318 3.4607233e-16 -2.3238891)
(-75.829085 7.30056e-20 -2.2406151)
(-77.39905 1.7490928e-16 -2.1491677)
(-78.984038 1.7587219e-16 -2.049409)
(-80.577714 8.0331026e-20 -1.9414505)
(-82.180675 -1.362477e-19 -1.8240592)
(-83.79611 -1.7869228e-16 -1.6968173)
(-85.430968 9.5274446e-20 -1.5602348)
(-87.094254 -1.3991045e-19 -1.4118852)
(-88.786549 2.5687642e-25 -1.2506834)
(-90.509004 1.8178158e-16 -1.0772964)
(-92.264392 -1.8261446e-16 -0.8906875)
(-94.053872 -8.2593164e-21 -0.68990667)
(-95.872767 -9.2144058e-17 -0.4744197)
(-97.7149 9.2395587e-17 -0.24500625)
(-99.578286 1.1629565e-19 -0.0017743969)
(-101.45355 -1.243634e-25 0.25102173)
(-103.3431 -4.6721995e-17 0.53236762)
(-105.2455 -8.4559394e-20 0.85601912)
(-107.17404 -6.8973597e-20 1.1901468)
(-109.12903 9.7006684e-20 1.5544807)
(-111.1177 3.9628383e-20 1.9497224)
(-113.14217 1.078606e-19 2.3458045)
(-115.19377 -4.7785165e-17 2.7623639)
(-117.28417 -1.1691295e-20 3.2118154)
(-119.41366 1.1775545e-20 3.6937761)
(-121.58068 -3.7680903e-20 4.2084341)
(-123.77693 -9.9750187e-21 4.7596446)
(-126.01995 -1.9492126e-16 5.3525248)
(-129.44517 -1.9511474e-16 6.0362855)
(-159.5532 1.5942867e-19 6.8823007)
(-160.89774 -3.340402e-16 6.3003487)
(-161.06354 8.5010474e-17 5.6555053)
(-161.29445 6.8119967e-19 5.009723)
(-161.52228 6.5252974e-19 4.3713002)
(-161.76958 -7.04328e-19 3.6869475)
(-162.02297 7.1499832e-17 2.9108598)
(-162.31099 -1.3411924e-17 2.1726108)
(-162.60546 -1.9560226e-34 1.4053256)
(-162.92067 1.2501418e-17 0.61538683)
(-163.24947 1.407677e-18 -0.13465237)
(-163.58664 -1.5307536e-18 -0.86688073)
(-163.93541 1.0689039e-16 -1.6304485)
(-164.28479 -5.4656992e-17 -2.4131609)
(-164.65034 1.7105737e-19 -3.2163806)
(-165.02757 -1.0987925e-16 -4.0394671)
(-165.39689 -3.6203333e-18 -4.8801355)
(-165.77494 -2.3689224e-16 -5.7419726)
(-166.14992 -2.8741794e-19 -6.627684)
(-166.53696 1.2338087e-16 -7.5437654)
(-166.93456 -1.2190811e-16 -8.4841273)
(-167.33284 -8.06522e-18 -9.4473834)
(-167.73292 4.126543e-18 -10.435454)
(-168.1182 4.18661e-18 -11.445461)
(-168.52302 2.8836047e-20 -12.488791)
(-168.92484 5.5159568e-16 -13.559082)
(-169.33095 2.9223193e-16 -14.659649)
(-169.73923 2.7991037e-16 -15.795015)
(-170.1333 -1.4106087e-20 -16.962647)
(-170.52568 3.0035718e-16 -18.170669)
(-170.89421 5.4407521e-33 -19.417089)
(-171.22293 3.1210584e-16 -20.702418)
(-171.51814 0 -22.031054)
(-171.79781 -3.0814879e-33 -23.410805)
(-172.08076 3.3049038e-16 -24.852252)
(-172.3777 -3.3740176e-16 -26.359012)
(-172.6868 -1.0750189e-17 -27.932602)
(-173.02533 1.0907729e-17 -29.583436)
(-173.4044 3.5859055e-16 -31.323722)
(-173.83941 -1.2073789e-18 -33.162783)
(-174.33376 1.3743906e-18 -35.108353)
(-174.84832 -4.1345321e-20 -37.170104)
(-175.36305 4.011695e-16 -39.359428)
(-175.85559 -1.1754096e-17 -41.673726)
(-176.24572 4.0192057e-16 -44.103852)
(-176.53956 -4.0943401e-16 -46.689659)
(-176.72371 -4.1568981e-16 -49.443727)
(-176.80459 4.2645963e-16 -52.387645)
(-176.75688 1.6952843e-17 -55.512112)
(-176.53229 4.2908136e-16 -58.804578)
(-176.09516 4.6541844e-16 -62.279538)
(-175.27419 -1.4176604e-17 -65.931552)
(-173.94848 4.4879371e-16 -69.762462)
(-171.98809 4.6362102e-16 -73.783023)
(-169.26291 7.5100375e-18 -78.057372)
(-165.71883 3.0525952e-17 -82.692579)
(-161.34824 -1.5496259e-17 -87.757196)
(-156.0007 1.1000617e-17 -93.119436)
(-149.86491 5.1864919e-16 -99.059348)
(-143.34982 1.7000764e-18 -105.56323)
(-137.62162 5.2215935e-16 -112.57739)
(-133.27247 9.24413e-19 -119.84617)
(-129.26557 1.786294e-17 -127.03892)
(-124.48155 -1.7952095e-17 -133.65631)
(-118.04934 -5.9475921e-16 -139.07539)
(-109.66577 6.2098874e-16 -142.71387)
(-99.443094 3.0814879e-33 -144.19321)
(-87.053997 -9.6296497e-35 -142.56607)
(-72.784028 1.211184e-17 -137.01431)
(-57.425716 -6.7008316e-16 -127.08756)
(-41.900764 -3.3381673e-16 -112.34807)
(-27.397516 3.381809e-16 -93.109753)
(-15.607072 1.6707222e-16 -70.666547)
(-7.9594044 -3.4528788e-18 -46.515535)
(-3.5436077 7.4639466e-17 -23.498802)
(-102.78434 2.5075267e-15 17.511985)
(-99.010318 0 19.017902)
(-101.69735 6.2889615e-19 19.43766)
(-104.51228 -3.2560711e-23 19.769365)
(-106.32401 -3.6951212e-21 19.91368)
(-107.80898 9.6133743e-16 19.997479)
(-108.86318 5.0560737e-20 20.006067)
(-109.69154 -9.5555967e-16 19.974349)
(-110.27176 -3.6427121e-21 19.899199)
(-110.68762 5.6636902e-19 19.797325)
(-110.94782 -5.528379e-19 19.670564)
(-111.09064 9.4003491e-16 19.523911)
(-111.12556 6.7789437e-26 19.360841)
(-111.08085 6.0490957e-19 19.185315)
(-110.96385 -8.4112524e-24 19.002366)
(-110.78792 -9.2125147e-16 18.812617)
(-110.55967 9.16558e-16 18.617212)
(-110.28873 -7.5231638e-37 18.416399)
(-109.98069 9.0713159e-16 18.211937)
(-109.64771 9.0236149e-16 18.004577)
(-109.28947 8.5394613e-22 17.795766)
(-108.90933 -8.525192e-22 17.58437)
(-108.50272 1.7736141e-15 17.371525)
(-108.0755 4.5148384e-19 17.155831)
(-107.62012 4.1705426e-22 16.938176)
(-107.1397 8.7114767e-16 16.717124)
(-106.62737 4.8558846e-19 16.493924)
(-106.09452 8.6085124e-16 16.267472)
(-105.53822 8.5573932e-16 16.03911)
(-104.96516 -4.6499761e-19 15.808134)
(-104.36084 8.4569015e-16 15.573666)
(-103.73041 -2.7478974e-21 15.337655)
(-103.07182 -8.3546182e-16 15.096495)
(-102.37745 -4.3114068e-19 14.85062)
(-101.64043 8.2516362e-16 14.599546)
(-100.86176 -8.2057014e-16 14.343645)
(-100.03465 1.5572227e-21 14.081446)
(-99.159116 1.214356e-25 13.812846)
(-98.231207 -1.8198958e-21 13.537073)
(-97.244047 7.9860827e-16 13.254293)
(-96.185963 7.9339862e-16 12.962116)
(-95.036052 -7.8775947e-16 12.658376)
(-93.768591 1.7559329e-19 12.341266)
(-92.366126 -7.7585644e-16 12.009664)
(-90.815625 -2.4430759e-19 11.662427)
(-89.131073 8.1280912e-20 11.302499)
(-87.346557 1.5181781e-19 10.933967)
(-85.50969 8.3750294e-20 10.562426)
(-83.682712 8.1271513e-20 10.19145)
(-81.856966 -7.3200452e-16 9.817373)
(-79.801286 -8.7691686e-20 9.4137787)
(-76.918906 7.1363722e-16 8.932156)
(-72.792774 7.0053844e-16 8.327032)
(-67.341264 -1.0996938e-19 7.603445)
(-60.301405 -6.6083104e-16 6.7584483)
(-52.320085 6.3188375e-16 5.8312679)
(-44.493293 5.7855569e-20 4.9311705)
(-38.085534 -6.9613728e-26 4.2033358)
(-37.216537 -1.1664766e-19 3.9586398)
(-48.450449 -2.8446681e-16 4.8237111)
(-72.875287 8.9105285e-20 6.7694446)
(-102.74922 -3.0936609e-16 9.179435)
(-128.41193 3.0943275e-16 11.167598)
(-144.6596 -6.1696129e-16 12.267629)
(-152.89693 3.068742e-16 12.574852)
(-156.7625 1.0474739e-19 12.462868)
(-158.61626 -3.0377315e-16 12.135178)
(-159.55424 4.9252611e-20 11.698509)
(-160.06533 -2.1262682e-20 11.204236)
(-160.40309 -3.0183319e-16 10.670142)
(-160.67665 3.0182636e-16 10.112899)
(-160.83555 -4.2058526e-20 9.5268893)
(-160.96277 5.7637982e-21 8.9162094)
(-161.07547 1.5140953e-16 8.2845692)
(-159.72724 3.0242482e-16 7.5478467)
)
;
    }
    inlet
    {
        type            calculated;
        value           uniform (0 0 0);
    }
    outlet
    {
        type            calculated;
        value           uniform (0 0 0);
    }
    back
    {
        type            empty;
    }
    front
    {
        type            empty;
    }
}


// ************************************************************************* //
