/*--------------------------------*- C++ -*----------------------------------*\
  =========                 |
  \\      /  F ield         | OpenFOAM: The Open Source CFD Toolbox
   \\    /   O peration     | Website:  https://openfoam.org
    \\  /    A nd           | Version:  8
     \\/     M anipulation  |
\*---------------------------------------------------------------------------*/
FoamFile
{
    version     2.0;
    format      ascii;
    class       volScalarField;
    location    "0.199992";
    object      yPlus;
}
// * * * * * * * * * * * * * * * * * * * * * * * * * * * * * * * * * * * * * //

dimensions      [0 0 0 0 0 0 0];

internalField   uniform 0;

boundaryField
{
    aerofoil
    {
        type            calculated;
        value           nonuniform List<scalar> 
300
(
131.71446
131.5014
131.56911
131.55748
131.58834
131.61328
131.65039
131.68941
131.737
131.79199
131.86672
131.95732
132.06801
132.18381
132.30892
132.44191
132.57305
132.70538
132.82845
132.95126
133.07597
133.20317
133.34655
133.49763
133.67976
133.88013
134.10802
134.36823
134.64546
134.94523
135.26505
135.59687
135.92433
136.24533
136.56872
136.90048
137.23527
137.58347
137.96311
138.368
138.76565
139.15516
139.51111
139.83129
140.07512
140.26351
140.37581
140.41821
140.39265
140.29144
140.12208
139.90331
139.63623
139.33524
139.0308
138.76006
138.56253
138.42489
138.2169
137.88716
137.3497
136.5791
135.48085
133.84895
131.57017
128.35981
123.81495
117.44019
108.4082
95.264006
76.831527
52.609027
27.24937
15.13006
44.433948
19.555167
34.255368
35.848809
40.688881
44.111468
47.553497
50.604538
53.457473
56.084275
58.523576
60.794009
62.905379
64.872793
66.721046
68.474878
70.145128
71.740517
73.263408
74.723028
76.12818
77.480725
78.785445
80.042825
81.260555
82.442733
83.601369
84.736511
85.852356
86.945451
88.021633
89.077424
90.115214
91.140203
92.147528
93.142109
94.127296
95.106725
96.079632
97.046247
98.005554
98.960771
99.908773
100.84799
101.77953
102.70819
103.63591
104.56858
105.5028
106.43281
107.35395
108.26742
109.17733
110.08654
111.00059
111.91899
112.84164
113.77025
114.70571
115.64607
116.58731
117.52972
118.46573
119.39816
120.3246
121.25215
122.18211
123.11837
124.06453
125.01355
125.97373
126.94506
127.92705
128.91732
129.91543
131.06143
124.11922
123.60324
122.97199
122.41586
121.88929
121.41177
120.96576
120.567
120.20053
119.87662
119.58707
119.32876
119.10718
118.91106
118.74849
118.62033
118.51207
118.43353
118.37411
118.34145
118.33648
118.35209
118.39377
118.44421
118.52656
118.6262
118.74413
118.88572
119.03612
119.20712
119.39045
119.57963
119.77356
119.97741
120.20385
120.46136
120.74583
121.06302
121.42064
121.82947
122.28788
122.78762
123.32294
123.9061
124.4841
125.07879
125.67924
126.30502
126.95777
127.61977
128.28703
128.91671
129.47499
129.93313
130.28399
130.57683
130.86935
131.12187
131.4876
132.19758
133.71316
136.2841
139.57136
143.16252
146.64462
149.68889
152.25527
153.72596
153.50157
150.98978
145.10805
134.86408
119.51103
97.938394
69.727224
114.92994
126.47968
127.69165
129.09075
129.75776
130.31805
130.58891
130.77409
130.81033
130.77533
130.65543
130.4841
130.25723
129.99391
129.69748
129.3754
129.02915
128.66549
128.28445
127.89584
127.49671
127.09105
126.67113
126.24413
125.8009
125.34732
124.87397
124.39189
123.8937
123.38852
122.86392
122.32481
121.76909
121.19383
120.59194
119.96689
119.31117
118.62649
117.90872
117.15432
116.3571
115.50603
114.58281
113.58038
112.48453
111.29809
110.03389
108.70776
107.3543
105.96848
104.44444
102.45916
99.64372
95.886805
90.867611
84.672192
78.062081
72.01095
70.482208
78.448749
92.495539
105.19977
113.97244
118.96279
121.40895
122.51788
123.0584
123.37078
123.56692
123.71823
123.88952
124.03869
124.19388
124.35105
124.39065
)
;
    }
    inlet
    {
        type            calculated;
        value           uniform 0;
    }
    outlet
    {
        type            calculated;
        value           uniform 0;
    }
    back
    {
        type            empty;
    }
    front
    {
        type            empty;
    }
}


// ************************************************************************* //
