/*--------------------------------*- C++ -*----------------------------------*\
  =========                 |
  \\      /  F ield         | OpenFOAM: The Open Source CFD Toolbox
   \\    /   O peration     | Website:  https://openfoam.org
    \\  /    A nd           | Version:  8
     \\/     M anipulation  |
\*---------------------------------------------------------------------------*/
FoamFile
{
    version     2.0;
    format      ascii;
    class       volScalarField;
    location    "0.0300106";
    object      alphat;
}
// * * * * * * * * * * * * * * * * * * * * * * * * * * * * * * * * * * * * * //

dimensions      [1 -1 -1 0 0 0 0];

internalField   nonuniform List<scalar> 
20000
(
0.0010510953
0.0026197891
0.0035134185
0.0038466582
0.00348024
0.002078847
0.00031067666
1.8510709e-08
5.0350627e-09
5.0363192e-09
4.9148498e-09
4.9601214e-09
4.906509e-09
4.9456282e-09
4.9509006e-09
4.9918143e-09
5.0267711e-09
5.0857174e-09
5.1522721e-09
5.2425265e-09
5.347918e-09
5.4772962e-09
5.6262008e-09
5.8016335e-09
6.0001389e-09
6.223836e-09
6.4700152e-09
6.7333624e-09
7.0038216e-09
7.2709837e-09
7.5250204e-09
7.7568171e-09
7.9600816e-09
8.1314494e-09
8.2685266e-09
8.3741492e-09
8.4490885e-09
8.4880137e-09
8.4970806e-09
8.4619757e-09
8.3970207e-09
8.3724688e-09
8.479136e-09
8.5722404e-09
8.607937e-09
8.6126711e-09
8.593993e-09
8.5824929e-09
8.5764672e-09
8.5735073e-09
0.0010340568
0.0025697072
0.0034385132
0.0037452592
0.003351576
0.0018870755
0.00023547193
1.1905963e-08
4.9952331e-09
5.0038161e-09
4.8838283e-09
4.9307522e-09
4.8781386e-09
4.9184399e-09
4.9249893e-09
4.9679404e-09
5.0058444e-09
5.0690344e-09
5.1391568e-09
5.2324076e-09
5.340855e-09
5.4732604e-09
5.6254274e-09
5.8031426e-09
6.0078066e-09
6.2376422e-09
6.4889494e-09
6.7567609e-09
7.0301112e-09
7.2981215e-09
7.5510855e-09
7.7802049e-09
7.9798426e-09
8.1469815e-09
8.2792461e-09
8.3838161e-09
8.4527565e-09
8.4859061e-09
8.4935513e-09
8.4452057e-09
8.3936998e-09
8.3723823e-09
8.4900225e-09
8.5770512e-09
8.6083814e-09
8.613169e-09
8.5937585e-09
8.5824188e-09
8.5764681e-09
8.5735026e-09
0.0010319333
0.0025420994
0.0033773594
0.0036476582
0.0032148969
0.0016760473
0.00015938812
8.6264821e-09
4.9679262e-09
4.9800257e-09
4.8619232e-09
4.909806e-09
4.8588793e-09
4.9011101e-09
4.9102945e-09
4.9561934e-09
4.9969314e-09
5.0624175e-09
5.1346999e-09
5.2300698e-09
5.3402251e-09
5.4735782e-09
5.6292828e-09
5.813246e-09
6.0232375e-09
6.258808e-09
6.5155472e-09
6.7874427e-09
7.0631637e-09
7.3313797e-09
7.5825047e-09
7.8081193e-09
8.003257e-09
8.1651045e-09
8.2922377e-09
8.3943616e-09
8.4568473e-09
8.4834746e-09
8.4846723e-09
8.4220675e-09
8.3837555e-09
8.3773535e-09
8.508905e-09
8.5819239e-09
8.6083696e-09
8.6127014e-09
8.593768e-09
8.5824979e-09
8.57653e-09
8.5735284e-09
0.0010283961
0.0025125051
0.0033153624
0.0035502558
0.0030814764
0.0014807407
9.5280399e-05
7.0232483e-09
4.9473767e-09
4.9637645e-09
4.8485586e-09
4.8979526e-09
4.8498387e-09
4.8937119e-09
4.9041668e-09
4.9513431e-09
4.9935799e-09
5.0606888e-09
5.1338708e-09
5.2300424e-09
5.3425659e-09
5.4809108e-09
5.6422399e-09
5.8318048e-09
6.0480774e-09
6.2896165e-09
6.5514134e-09
6.8268996e-09
7.1041623e-09
7.3715877e-09
7.6197917e-09
7.8408898e-09
8.0305465e-09
8.1861213e-09
8.3084649e-09
8.405313e-09
8.46087e-09
8.4819359e-09
8.4748215e-09
8.4059789e-09
8.3737895e-09
8.3881288e-09
8.5178116e-09
8.5867589e-09
8.6095861e-09
8.6126886e-09
8.5937188e-09
8.5825079e-09
8.5765419e-09
8.5735381e-09
0.001024917
0.0024839917
0.0032551569
0.0034531509
0.0029498379
0.0012958213
4.7024235e-05
6.1970779e-09
4.9405121e-09
4.9550236e-09
4.8400802e-09
4.8866733e-09
4.8459828e-09
4.8908491e-09
4.9026186e-09
4.9503679e-09
4.9933036e-09
5.0613131e-09
5.137397e-09
5.2374043e-09
5.3541477e-09
5.4968092e-09
5.6636318e-09
5.8593771e-09
6.0817883e-09
6.3291698e-09
6.5957981e-09
6.874309e-09
7.152311e-09
7.4179975e-09
7.6622677e-09
7.8778612e-09
8.0610095e-09
8.2094509e-09
8.3268803e-09
8.4163189e-09
8.4645974e-09
8.4809586e-09
8.463901e-09
8.3925987e-09
8.3626718e-09
8.4044859e-09
8.5285428e-09
8.5915696e-09
8.6115815e-09
8.6126034e-09
8.5937164e-09
8.5825311e-09
8.5765589e-09
8.5735497e-09
0.0010223251
0.002457488
0.0031971857
0.0033559899
0.0028163918
0.0011210394
1.8692853e-05
5.7592682e-09
4.9310718e-09
4.9464064e-09
4.8307425e-09
4.8809516e-09
4.8452405e-09
4.8906739e-09
4.9034153e-09
4.9531132e-09
4.9986753e-09
5.0696715e-09
5.1488296e-09
5.252244e-09
5.3733374e-09
5.5212138e-09
5.6938757e-09
5.8958045e-09
6.1245902e-09
6.3777539e-09
6.6488485e-09
6.9297648e-09
7.2076349e-09
7.4705649e-09
7.7098461e-09
7.918896e-09
8.0944955e-09
8.235226e-09
8.3472943e-09
8.4273533e-09
8.4679619e-09
8.4797571e-09
8.4533772e-09
8.3826573e-09
8.3536145e-09
8.4212426e-09
8.5380302e-09
8.5966007e-09
8.6146737e-09
8.6125401e-09
8.5937025e-09
8.5825418e-09
8.5765685e-09
8.5735594e-09
0.0010195799
0.0024313309
0.0031410447
0.0032637771
0.0026792991
0.00095764856
6.3040567e-06
5.5205333e-09
4.9304838e-09
4.941486e-09
4.8290853e-09
4.8772204e-09
4.8497251e-09
4.8966873e-09
4.911436e-09
4.963058e-09
5.0109631e-09
5.0847184e-09
5.1673788e-09
5.274852e-09
5.4006641e-09
5.5538099e-09
5.732545e-09
5.9409243e-09
6.176138e-09
6.4349815e-09
6.7101794e-09
6.992836e-09
7.2696754e-09
7.5288348e-09
7.7620598e-09
7.9634785e-09
8.1305674e-09
8.263474e-09
8.36897e-09
8.4382433e-09
8.4708165e-09
8.4786868e-09
8.4408217e-09
8.374525e-09
8.3490109e-09
8.4381375e-09
8.5474185e-09
8.6019102e-09
8.6184595e-09
8.6124813e-09
8.593694e-09
8.5825517e-09
8.5765765e-09
8.5735686e-09
0.0010172795
0.0024066117
0.0030870718
0.0031701535
0.0025362552
0.00080694512
1.9678308e-06
5.3938742e-09
4.9346513e-09
4.9488613e-09
4.8375463e-09
4.8884304e-09
4.860409e-09
4.9087839e-09
4.9254451e-09
4.9792464e-09
5.029898e-09
5.1066872e-09
5.1930453e-09
5.3046862e-09
5.4355082e-09
5.5943417e-09
5.779441e-09
5.994473e-09
6.2362356e-09
6.5006345e-09
6.7795098e-09
7.0631917e-09
7.3380765e-09
7.5924215e-09
7.818485e-09
8.0111587e-09
8.1689968e-09
8.2944188e-09
8.3911496e-09
8.4490672e-09
8.4734254e-09
8.4775822e-09
8.4267986e-09
8.3682478e-09
8.3471562e-09
8.4534594e-09
8.5563473e-09
8.6073e-09
8.6225872e-09
8.612445e-09
8.5936743e-09
8.5825574e-09
8.5765823e-09
8.5735769e-09
0.0010146857
0.0023814428
0.0030316164
0.0030755291
0.0023875048
0.00067110859
6.1702991e-07
5.3273313e-09
4.942828e-09
4.9585831e-09
4.8504876e-09
4.9028126e-09
4.8767977e-09
4.9267837e-09
4.9455601e-09
5.001597e-09
5.0550192e-09
5.1350056e-09
5.2252838e-09
5.3414368e-09
5.4775946e-09
5.6424177e-09
5.834214e-09
6.056167e-09
6.3045713e-09
6.574378e-09
6.8564644e-09
7.1404151e-09
7.4123875e-09
7.6608393e-09
7.8785747e-09
8.0614356e-09
8.2096487e-09
8.3276445e-09
8.4130986e-09
8.45985e-09
8.4765617e-09
8.4744951e-09
8.4134924e-09
8.3630792e-09
8.3466365e-09
8.4678174e-09
8.5650223e-09
8.612637e-09
8.6267529e-09
8.6124171e-09
8.5936349e-09
8.5825379e-09
8.5765869e-09
8.5735843e-09
0.0010128671
0.0023574047
0.0029768377
0.0029813559
0.0022319261
0.00055366271
2.0717263e-07
5.2984255e-09
4.9562902e-09
4.9746067e-09
4.869077e-09
4.9226383e-09
4.8985918e-09
4.9501589e-09
4.9711014e-09
5.0294716e-09
5.0858808e-09
5.169231e-09
5.263733e-09
5.3846916e-09
5.5265535e-09
5.6977554e-09
5.8965911e-09
6.1257212e-09
6.3808523e-09
6.6558682e-09
6.9406385e-09
7.2240502e-09
7.4921155e-09
7.7335336e-09
7.9417428e-09
8.1139299e-09
8.2525882e-09
8.3619523e-09
8.4345569e-09
8.4704715e-09
8.481616e-09
8.4691903e-09
8.4006909e-09
8.3585564e-09
8.3467196e-09
8.481714e-09
8.5735054e-09
8.6179559e-09
8.6309593e-09
8.6124e-09
8.5935655e-09
8.5824991e-09
8.5765864e-09
8.5735906e-09
0.0010109518
0.0023337823
0.0029226063
0.0028876702
0.0020699864
0.00044874871
7.7653267e-08
5.2908233e-09
4.9744514e-09
4.9948987e-09
4.8922636e-09
4.9471652e-09
4.9251755e-09
4.9783434e-09
5.0015839e-09
5.0624179e-09
5.1220043e-09
5.2090138e-09
5.3080328e-09
5.4341623e-09
5.5821192e-09
5.7600925e-09
5.9663371e-09
6.202911e-09
6.464823e-09
6.7447944e-09
7.0316533e-09
7.3136549e-09
7.5767475e-09
7.8098998e-09
8.0074119e-09
8.1684421e-09
8.2978619e-09
8.3962031e-09
8.4552236e-09
8.4812904e-09
8.4883223e-09
8.4617615e-09
8.3896035e-09
8.3541179e-09
8.3542747e-09
8.4957795e-09
8.5821295e-09
8.622941e-09
8.635046e-09
8.6123558e-09
8.5934549e-09
8.5824306e-09
8.5765641e-09
8.5735958e-09
0.0010095304
0.0023103048
0.0028681364
0.0027938867
0.0019015854
0.00035276142
3.3899689e-08
5.2964745e-09
4.9967518e-09
5.019748e-09
4.9195746e-09
4.9757843e-09
4.9559683e-09
5.0108319e-09
5.0365624e-09
5.1000592e-09
5.1631075e-09
5.2540298e-09
5.3579244e-09
5.4895933e-09
5.6440549e-09
5.8292137e-09
6.0432331e-09
6.2874971e-09
6.5562006e-09
6.8408025e-09
7.1290827e-09
7.4087325e-09
7.6656926e-09
7.889282e-09
8.0751202e-09
8.2250013e-09
8.3449979e-09
8.4294871e-09
8.474969e-09
8.4921542e-09
8.4952216e-09
8.4523796e-09
8.3806937e-09
8.347906e-09
8.3700263e-09
8.5105944e-09
8.5913974e-09
8.6275381e-09
8.6385638e-09
8.6122331e-09
8.5932945e-09
8.5823318e-09
8.5765295e-09
8.5736e-09
0.0010082693
0.0022865828
0.0028121364
0.0026931882
0.0017283889
0.00026586167
1.7827604e-08
5.3106409e-09
5.0227578e-09
5.0478535e-09
4.9504013e-09
5.008056e-09
4.9906174e-09
5.0473283e-09
5.0757831e-09
5.1421723e-09
5.2089512e-09
5.3041159e-09
5.4132436e-09
5.5508521e-09
5.7122496e-09
5.9050261e-09
6.1271907e-09
6.3793683e-09
6.6548054e-09
6.9436235e-09
7.2325536e-09
7.5088009e-09
7.7583353e-09
7.9710523e-09
8.1445978e-09
8.2837173e-09
8.392426e-09
8.4614973e-09
8.4937295e-09
8.5030817e-09
8.4996924e-09
8.4421683e-09
8.3733246e-09
8.3433541e-09
8.3900212e-09
8.5268984e-09
8.6019998e-09
8.6321273e-09
8.6406992e-09
8.6120355e-09
8.5930816e-09
8.5822033e-09
8.5764834e-09
8.5736034e-09
0.0010073127
0.0022624162
0.0027548184
0.002592288
0.0015536832
0.00018730036
1.1300724e-08
5.3301783e-09
5.0517824e-09
5.0791089e-09
4.9846025e-09
5.0438163e-09
5.0289892e-09
5.0877035e-09
5.1191317e-09
5.1886319e-09
5.2594333e-09
5.359125e-09
5.4738513e-09
5.617794e-09
5.7865683e-09
5.9873957e-09
6.2180731e-09
6.4783455e-09
6.7603947e-09
7.0529157e-09
7.3416228e-09
7.6132828e-09
7.8539903e-09
8.0546865e-09
8.2157994e-09
8.3443685e-09
8.4387658e-09
8.4918274e-09
8.5119071e-09
8.5141606e-09
8.5010571e-09
8.4327624e-09
8.3672413e-09
8.3412576e-09
8.4108298e-09
8.5435943e-09
8.6135339e-09
8.6376926e-09
8.6414989e-09
8.6117647e-09
8.592814e-09
8.5820477e-09
8.5764291e-09
8.5736061e-09
0.0010063069
0.0022377228
0.0026935373
0.0024913474
0.0013797093
0.00011706378
8.3759963e-09
5.3541837e-09
5.0840673e-09
5.1136278e-09
5.0221975e-09
5.0830887e-09
5.0710737e-09
5.1319321e-09
5.1665572e-09
5.2393637e-09
5.3144731e-09
5.419023e-09
5.5397382e-09
5.6904482e-09
5.8670625e-09
6.0763939e-09
6.3159336e-09
6.5844284e-09
6.8728597e-09
7.1684366e-09
7.4558932e-09
7.7215954e-09
7.9520092e-09
8.1398573e-09
8.2887902e-09
8.4055628e-09
8.4831353e-09
8.5204149e-09
8.530464e-09
8.5250404e-09
8.5009751e-09
8.4243609e-09
8.3631637e-09
8.3406336e-09
8.4321996e-09
8.5593081e-09
8.6249298e-09
8.6453887e-09
8.6416869e-09
8.6114305e-09
8.592489e-09
8.5818678e-09
8.5763662e-09
8.5736066e-09
0.0010055105
0.0022140425
0.0026353546
0.0023885984
0.0012084239
6.0073819e-05
6.9775221e-09
5.3814016e-09
5.1194826e-09
5.1513894e-09
5.0632246e-09
5.1259093e-09
5.1168844e-09
5.1800055e-09
5.2180039e-09
5.2943654e-09
5.3740483e-09
5.4837654e-09
5.6108509e-09
5.7687596e-09
5.953678e-09
6.1719662e-09
6.4206959e-09
6.6974886e-09
6.9919768e-09
7.2898415e-09
7.5748466e-09
7.8330691e-09
8.0518351e-09
8.2264739e-09
8.3634126e-09
8.465542e-09
8.5251158e-09
8.5480919e-09
8.5491772e-09
8.5361077e-09
8.5007047e-09
8.4174421e-09
8.3612248e-09
8.3409582e-09
8.4528404e-09
8.5740032e-09
8.6356221e-09
8.6545104e-09
8.6416726e-09
8.6109935e-09
8.5921048e-09
8.5816672e-09
8.5762943e-09
8.5735994e-09
0.0010046896
0.002190077
0.0025766479
0.0022817919
0.0010427803
2.4039364e-05
6.2908927e-09
5.412025e-09
5.158328e-09
5.192594e-09
5.1077861e-09
5.1722879e-09
5.1663932e-09
5.2318508e-09
5.2734892e-09
5.3535528e-09
5.438169e-09
5.5534261e-09
5.6873226e-09
5.85291e-09
6.0466356e-09
6.274337e-09
6.532542e-09
6.8176061e-09
7.1176768e-09
7.41686e-09
7.6979767e-09
7.94708e-09
8.1531266e-09
8.314578e-09
8.4386549e-09
8.5229574e-09
8.5646053e-09
8.5758376e-09
8.5671614e-09
8.5470385e-09
8.4985488e-09
8.4116844e-09
8.3603396e-09
8.3427054e-09
8.4735859e-09
8.5878997e-09
8.6454509e-09
8.6631121e-09
8.6415722e-09
8.6103845e-09
8.5916662e-09
8.5814499e-09
8.5762148e-09
8.573589e-09
0.0010039064
0.0021657998
0.0025163265
0.0021694
0.00088532701
7.7061373e-06
5.957205e-09
5.4472958e-09
5.2005107e-09
5.2370758e-09
5.1556973e-09
5.2220866e-09
5.2194884e-09
5.287468e-09
5.3329279e-09
5.4170662e-09
5.5068859e-09
5.6280276e-09
5.7691627e-09
5.9429113e-09
6.1459537e-09
6.3835202e-09
6.6514473e-09
6.9446703e-09
7.2497133e-09
7.5490414e-09
7.8246394e-09
8.0630474e-09
8.2557742e-09
8.404002e-09
8.5124791e-09
8.5774138e-09
8.6028426e-09
8.6029797e-09
8.5840276e-09
8.5565683e-09
8.4926016e-09
8.4066967e-09
8.3599696e-09
8.3486265e-09
8.494857e-09
8.6012465e-09
8.6540091e-09
8.6705597e-09
8.6406628e-09
8.6096081e-09
8.5911872e-09
8.5812203e-09
8.5761298e-09
8.5735759e-09
0.0010031672
0.0021413394
0.0024545517
0.0020518481
0.00073875836
2.1869238e-06
5.8055623e-09
5.4862055e-09
5.2456597e-09
5.2845971e-09
5.2068594e-09
5.2752568e-09
5.2762043e-09
5.3468389e-09
5.3964986e-09
5.4848305e-09
5.5802877e-09
5.7077535e-09
5.8566353e-09
6.039096e-09
6.2519989e-09
6.4998631e-09
6.7776821e-09
7.0787973e-09
7.3879748e-09
7.6859909e-09
7.9542583e-09
8.1806278e-09
8.3598345e-09
8.493828e-09
8.5833436e-09
8.628704e-09
8.6409568e-09
8.6286726e-09
8.5995021e-09
8.5615975e-09
8.4843495e-09
8.4022023e-09
8.3631424e-09
8.3606482e-09
8.516728e-09
8.6145515e-09
8.6612795e-09
8.6760486e-09
8.6394368e-09
8.6087317e-09
8.5906816e-09
8.5809821e-09
8.5760414e-09
8.5735616e-09
0.0010025242
0.002117139
0.0023914301
0.001930954
0.00060473179
6.1450222e-07
5.7473118e-09
5.5275949e-09
5.2937721e-09
5.3352304e-09
5.2613138e-09
5.3318793e-09
5.3365777e-09
5.4101082e-09
5.4641266e-09
5.5571183e-09
5.658502e-09
5.7926931e-09
5.9498198e-09
6.141546e-09
6.3648486e-09
6.6234182e-09
6.9112334e-09
7.2198451e-09
7.5320974e-09
7.8271144e-09
8.0862406e-09
8.299703e-09
8.465099e-09
8.5819308e-09
8.6507582e-09
8.6783373e-09
8.6779454e-09
8.6528401e-09
8.6136987e-09
8.5634503e-09
8.4752736e-09
8.3989311e-09
8.3664892e-09
8.3815235e-09
8.5387062e-09
8.6285832e-09
8.6676634e-09
8.6788522e-09
8.6380481e-09
8.607797e-09
8.5901576e-09
8.5807383e-09
8.5759513e-09
8.5735468e-09
0.0010021236
0.0020937993
0.0023281979
0.0018020714
0.00048542837
1.8971285e-07
5.7378787e-09
5.5721243e-09
5.3450939e-09
5.3891056e-09
5.319199e-09
5.3920287e-09
5.4007272e-09
5.4772792e-09
5.5360814e-09
5.6338597e-09
5.7417024e-09
5.8831506e-09
6.049122e-09
6.2507302e-09
6.4849869e-09
6.7546131e-09
7.0523964e-09
7.3678779e-09
7.6818298e-09
7.9719004e-09
8.2202328e-09
8.4203568e-09
8.5704733e-09
8.6667988e-09
8.7144843e-09
8.727439e-09
8.7128834e-09
8.6754348e-09
8.627038e-09
8.5637005e-09
8.46668e-09
8.3972624e-09
8.3690443e-09
8.4104105e-09
8.5615137e-09
8.6433135e-09
8.6743759e-09
8.6800186e-09
8.636575e-09
8.6068232e-09
8.5896194e-09
8.5804911e-09
8.5758609e-09
8.5735322e-09
0.0010019302
0.0020711839
0.0022720828
0.001665512
0.00038392207
7.0405821e-08
5.7548407e-09
5.6196907e-09
5.3995697e-09
5.4462291e-09
5.3805105e-09
5.4557548e-09
5.4686893e-09
5.5485e-09
5.6123157e-09
5.7154312e-09
5.830088e-09
5.9792995e-09
6.1546948e-09
6.3667926e-09
6.6125377e-09
6.8935214e-09
7.2011268e-09
7.5226316e-09
7.8366241e-09
8.1197187e-09
8.3560486e-09
8.5423497e-09
8.6738364e-09
8.7477554e-09
8.7761423e-09
8.7748355e-09
8.7455865e-09
8.6964637e-09
8.6399135e-09
8.5633451e-09
8.4592081e-09
8.3965133e-09
8.3718241e-09
8.4408129e-09
8.5838152e-09
8.6579748e-09
8.6823898e-09
8.6802129e-09
8.6350641e-09
8.6058137e-09
8.5890687e-09
8.580243e-09
8.5757712e-09
8.5735179e-09
0.001001919
0.0020476848
0.0022110748
0.0015204325
0.00029133005
3.1516591e-08
5.7866709e-09
5.6703557e-09
5.4572295e-09
5.5066841e-09
5.4453362e-09
5.5231828e-09
5.5405465e-09
5.623884e-09
5.6931525e-09
5.8018523e-09
5.9239711e-09
6.0815808e-09
6.2670747e-09
6.4903123e-09
6.7480634e-09
7.0406086e-09
7.3576741e-09
7.6840126e-09
7.996052e-09
8.2701819e-09
8.4937663e-09
8.6644026e-09
8.773719e-09
8.8246007e-09
8.836779e-09
8.8196261e-09
8.7759021e-09
8.7158371e-09
8.6518692e-09
8.5597482e-09
8.4535181e-09
8.3961525e-09
8.3754708e-09
8.4718726e-09
8.6045187e-09
8.6719771e-09
8.6933848e-09
8.6801046e-09
8.6335494e-09
8.6047612e-09
8.5885079e-09
8.5799965e-09
8.5756833e-09
8.5735045e-09
0.0010019654
0.0020237228
0.0021500706
0.0013695773
0.0002083745
1.7469661e-08
5.8279119e-09
5.724258e-09
5.5182483e-09
5.5706077e-09
5.5138229e-09
5.5943386e-09
5.6165046e-09
5.7036132e-09
5.7787415e-09
5.8936395e-09
6.0236596e-09
6.1902436e-09
6.3864743e-09
6.6214756e-09
6.8917102e-09
7.1959286e-09
7.5218824e-09
7.8515463e-09
8.1594717e-09
8.4229872e-09
8.6331777e-09
8.7843933e-09
8.8692156e-09
8.8989642e-09
8.8950941e-09
8.8616786e-09
8.8038793e-09
8.733548e-09
8.6609522e-09
8.5547364e-09
8.4498261e-09
8.3960713e-09
8.3807112e-09
8.5010549e-09
8.6235092e-09
8.6853043e-09
8.7045376e-09
8.6786233e-09
8.6318377e-09
8.6036498e-09
8.587944e-09
8.5797543e-09
8.5755976e-09
8.573492e-09
0.001002562
0.0019992478
0.0020873947
0.0012158901
0.00013421149
1.1753302e-08
5.8759833e-09
5.7814007e-09
5.5826251e-09
5.637918e-09
5.5859741e-09
5.6694599e-09
5.696715e-09
5.7880065e-09
5.8694592e-09
5.9909144e-09
6.1295687e-09
6.3058372e-09
6.5135206e-09
6.7609395e-09
7.0440796e-09
7.3599009e-09
7.693824e-09
8.0249093e-09
8.3264657e-09
8.5781485e-09
8.7730542e-09
8.9007602e-09
8.9601227e-09
8.9717655e-09
8.9502679e-09
8.9007342e-09
8.8295567e-09
8.7497974e-09
8.6643737e-09
8.5482716e-09
8.4484443e-09
8.3988545e-09
8.3889524e-09
8.5289644e-09
8.6408551e-09
8.6965988e-09
8.7138003e-09
8.6757116e-09
8.6298741e-09
8.6025084e-09
8.5873861e-09
8.5795181e-09
8.5755147e-09
8.5734807e-09
0.0010028788
0.0019733867
0.0020222165
0.0010692857
7.2955794e-05
9.2007586e-09
5.9286352e-09
5.8417825e-09
5.6503352e-09
5.7088103e-09
5.6620974e-09
5.7487632e-09
5.7815472e-09
5.8773168e-09
5.9655912e-09
6.0942895e-09
6.2420584e-09
6.4286537e-09
6.6484724e-09
6.9089275e-09
7.2053273e-09
7.5324835e-09
7.873126e-09
8.2034487e-09
8.4965575e-09
8.7355243e-09
8.9112119e-09
9.0123497e-09
9.0479956e-09
9.0417121e-09
9.0021395e-09
8.9366937e-09
8.8529705e-09
8.7649655e-09
8.6654768e-09
8.5410529e-09
8.4483049e-09
8.4050364e-09
8.4019602e-09
8.5555951e-09
8.6566733e-09
8.7054257e-09
8.7199089e-09
8.6723493e-09
8.6278073e-09
8.6013695e-09
8.5868405e-09
8.579289e-09
8.5754347e-09
8.5734706e-09
0.0010034918
0.001943745
0.0019532085
0.00093011232
3.146339e-05
7.9896799e-09
5.9856689e-09
5.9057979e-09
5.721886e-09
5.7837715e-09
5.7425314e-09
5.8326661e-09
5.8712832e-09
5.9718958e-09
6.0675642e-09
6.2039154e-09
6.361617e-09
6.5593229e-09
6.7920361e-09
7.0661491e-09
7.3760311e-09
7.7139413e-09
8.0596094e-09
8.3867514e-09
8.6696072e-09
8.8942812e-09
9.0458037e-09
9.1186652e-09
9.1338856e-09
9.1079379e-09
9.0504491e-09
8.9694841e-09
8.8740668e-09
8.778789e-09
8.6653015e-09
8.534154e-09
8.4491471e-09
8.4126806e-09
8.422828e-09
8.5806355e-09
8.6713564e-09
8.7122086e-09
8.72261e-09
8.6688838e-09
8.6257282e-09
8.6002503e-09
8.5863095e-09
8.5790674e-09
8.5753578e-09
8.573462e-09
0.0010033888
0.001909976
0.0018787802
0.00079924263
1.0897687e-05
7.4066396e-09
6.0471493e-09
5.9739223e-09
5.7976224e-09
5.8630762e-09
5.8275988e-09
5.9213706e-09
5.9662895e-09
6.0721205e-09
6.1756898e-09
6.3204552e-09
6.4886455e-09
6.6981874e-09
6.94452e-09
7.2328529e-09
7.5562835e-09
7.9040393e-09
8.2526779e-09
8.574241e-09
8.8454576e-09
9.0521119e-09
9.1754823e-09
9.2211735e-09
9.2164596e-09
9.1702786e-09
9.0950684e-09
8.9991923e-09
8.8929411e-09
8.7893462e-09
8.661827e-09
8.528706e-09
8.4524572e-09
8.4212283e-09
8.4521774e-09
8.6047601e-09
8.6856361e-09
8.7182072e-09
8.7233904e-09
8.6654354e-09
8.6236759e-09
8.5991567e-09
8.585794e-09
8.5788535e-09
8.5752843e-09
8.5734549e-09
0.001003211
0.0018720375
0.0017972403
0.00067725926
3.2877156e-06
7.1352191e-09
6.1129189e-09
6.0461009e-09
5.87763e-09
5.9468974e-09
5.9175074e-09
6.0152479e-09
6.0668319e-09
6.1784069e-09
6.290422e-09
6.4441247e-09
6.6237334e-09
6.8459787e-09
7.1067102e-09
7.4097526e-09
7.7465178e-09
8.1027612e-09
8.4519522e-09
8.7656535e-09
9.0238107e-09
9.2067128e-09
9.2991922e-09
9.3212367e-09
9.2947986e-09
9.2284649e-09
9.135865e-09
9.0259465e-09
8.9100257e-09
8.7934326e-09
8.6548572e-09
8.5246564e-09
8.4568629e-09
8.4320108e-09
8.4874641e-09
8.6288753e-09
8.7004525e-09
8.7253338e-09
8.7232494e-09
8.6620982e-09
8.621664e-09
8.5980884e-09
8.5852941e-09
8.5786478e-09
8.5752143e-09
8.5734493e-09
0.0010016281
0.0018283165
0.0016988686
0.00056490988
9.5724164e-07
7.0248514e-09
6.1832509e-09
6.1227662e-09
5.962201e-09
6.0355497e-09
6.0125849e-09
6.1145465e-09
6.1732438e-09
6.2910711e-09
6.4120966e-09
6.5756457e-09
6.7673449e-09
7.0031196e-09
7.2789694e-09
7.5970911e-09
7.9466641e-09
8.3096092e-09
8.6567701e-09
8.9606365e-09
9.2024823e-09
9.3565283e-09
9.4181063e-09
9.417624e-09
9.3686037e-09
9.2823525e-09
9.1727905e-09
9.0498517e-09
8.9258675e-09
8.7948064e-09
8.6457005e-09
8.5217292e-09
8.4615812e-09
8.443169e-09
8.5227751e-09
8.6522466e-09
8.7154922e-09
8.7360378e-09
8.7227935e-09
8.6589046e-09
8.619685e-09
8.5970425e-09
8.5848107e-09
8.5784508e-09
8.575148e-09
8.5734455e-09
0.0010003853
0.0017821124
0.0015889414
0.00046287014
2.9612225e-07
6.9991316e-09
6.2582277e-09
6.2039535e-09
6.0516101e-09
6.1292176e-09
6.1131139e-09
6.2195191e-09
6.285865e-09
6.4104718e-09
6.5412747e-09
6.7153077e-09
6.9201964e-09
7.1704343e-09
7.4621307e-09
7.7954842e-09
8.1569146e-09
8.5242721e-09
8.8667571e-09
9.1590162e-09
9.379128e-09
9.5000827e-09
9.5335475e-09
9.5093749e-09
9.4376331e-09
9.3318319e-09
9.205884e-09
9.0708996e-09
8.9396288e-09
8.7947152e-09
8.6355295e-09
8.5207268e-09
8.4669412e-09
8.4550255e-09
8.5584267e-09
8.6742024e-09
8.7299367e-09
8.7471272e-09
8.7189402e-09
8.6557131e-09
8.6176987e-09
8.5960199e-09
8.5843461e-09
8.5782631e-09
8.5750857e-09
8.5734435e-09
0.00099863126
0.0017333338
0.0014678939
0.00037085628
1.0687864e-07
7.0200013e-09
6.3379814e-09
6.2901952e-09
6.1459973e-09
6.2281692e-09
6.219214e-09
6.330504e-09
6.4049806e-09
6.5371569e-09
6.6784638e-09
6.8641498e-09
7.0829196e-09
7.348453e-09
7.6565853e-09
8.0050628e-09
8.3769321e-09
8.7461168e-09
9.0813792e-09
9.3595382e-09
9.5513866e-09
9.6375214e-09
9.6452242e-09
9.5957985e-09
9.5017121e-09
9.3768485e-09
9.2353289e-09
9.0892602e-09
8.9474743e-09
8.7917865e-09
8.6254932e-09
8.5206016e-09
8.4739492e-09
8.4677576e-09
8.5911556e-09
8.6938163e-09
8.7423072e-09
8.7564425e-09
8.7133084e-09
8.6522471e-09
8.6157183e-09
8.5950315e-09
8.583903e-09
8.578085e-09
8.5750272e-09
8.5734434e-09
0.00099676564
0.001682096
0.0013443185
0.00028878638
4.6836158e-08
7.0659162e-09
6.4224062e-09
6.3811978e-09
6.2455284e-09
6.3325393e-09
6.3313039e-09
6.4479158e-09
6.5312656e-09
6.6717445e-09
6.8245184e-09
7.0225019e-09
7.2563257e-09
7.5380718e-09
7.8631145e-09
8.2262015e-09
8.6065404e-09
8.974736e-09
9.3004154e-09
9.5596962e-09
9.7175897e-09
9.7701329e-09
9.7519118e-09
9.676735e-09
9.5607228e-09
9.4173805e-09
9.2613342e-09
9.1055377e-09
8.9504474e-09
8.7843066e-09
8.61691e-09
8.5209416e-09
8.4818133e-09
8.4834042e-09
8.620376e-09
8.7104311e-09
8.751684e-09
8.7626012e-09
8.7071708e-09
8.6487205e-09
8.613791e-09
8.594087e-09
8.5834827e-09
8.5779165e-09
8.5749728e-09
8.5734454e-09
0.0009947734
0.0016251459
0.0012232114
0.0002135241
2.4808136e-08
7.1265327e-09
6.5113973e-09
6.4773199e-09
6.3505392e-09
6.442804e-09
6.4499064e-09
6.5723596e-09
6.665344e-09
6.8149173e-09
6.9799578e-09
7.191504e-09
7.441113e-09
7.7398573e-09
8.0820486e-09
8.4587738e-09
8.8451417e-09
9.2094757e-09
9.5233241e-09
9.7565601e-09
9.8764512e-09
9.8989011e-09
9.852424e-09
9.7519266e-09
9.6145721e-09
9.453445e-09
9.2840354e-09
9.1200618e-09
8.9510646e-09
8.7730389e-09
8.6100524e-09
8.5233258e-09
8.4894983e-09
8.5053913e-09
8.6454564e-09
8.7242053e-09
8.7581439e-09
8.7652366e-09
8.7010875e-09
8.6452711e-09
8.6119459e-09
8.5931902e-09
8.5830846e-09
8.5777575e-09
8.5749223e-09
8.5734496e-09
0.00099366345
0.0015708805
0.0010992671
0.00014430181
1.5847706e-08
7.197067e-09
6.6059145e-09
6.5791472e-09
6.4616351e-09
6.5596176e-09
6.5757119e-09
6.704596e-09
6.8079053e-09
6.9674341e-09
7.145759e-09
7.371589e-09
7.6381869e-09
7.9547069e-09
8.3139672e-09
8.7027822e-09
9.0923209e-09
9.4498398e-09
9.7480325e-09
9.947975e-09
1.002908e-08
1.0022286e-08
9.946655e-09
9.8212822e-09
9.6632404e-09
9.485153e-09
9.3035162e-09
9.131289e-09
8.9505001e-09
8.7591341e-09
8.6044535e-09
8.5271896e-09
8.4982551e-09
8.5340097e-09
8.6675849e-09
8.736242e-09
8.7631208e-09
8.7658903e-09
8.6952481e-09
8.6419655e-09
8.6101943e-09
8.5923402e-09
8.5827072e-09
8.5776075e-09
8.5748764e-09
8.5734565e-09
0.00099345432
0.0015175699
0.00097505779
8.4008768e-05
1.1823603e-08
7.2741106e-09
6.7060066e-09
6.6872364e-09
6.5795553e-09
6.6837054e-09
6.7095218e-09
6.8452779e-09
6.9597288e-09
7.1300068e-09
7.3225176e-09
7.5639792e-09
7.8483267e-09
8.1831803e-09
8.5589932e-09
8.9578037e-09
9.3474577e-09
9.6953099e-09
9.9714876e-09
1.0131707e-08
1.0176848e-08
1.0138997e-08
1.0034254e-08
9.8846974e-09
9.7067338e-09
9.5127301e-09
9.3201353e-09
9.1357181e-09
8.9461524e-09
8.7440103e-09
8.5999703e-09
8.5324071e-09
8.5095228e-09
8.5668918e-09
8.6888373e-09
8.7483533e-09
8.7685754e-09
8.7655283e-09
8.6897766e-09
8.6388342e-09
8.6085345e-09
8.5915338e-09
8.5823496e-09
8.5774661e-09
8.5748347e-09
8.5734659e-09
0.00099390408
0.0014609288
0.00085272386
3.9598755e-05
9.91264e-09
7.3574313e-09
6.8131058e-09
6.8026793e-09
6.7051129e-09
6.8158349e-09
6.8518653e-09
6.99513e-09
7.1213749e-09
7.303501e-09
7.5113099e-09
7.7692822e-09
8.0725208e-09
8.426059e-09
8.8173479e-09
9.2234777e-09
9.6100048e-09
9.945122e-09
1.0190393e-08
1.0307622e-08
1.0319187e-08
1.0248365e-08
1.0115135e-08
9.9421875e-09
9.7451572e-09
9.5364624e-09
9.3344696e-09
9.1371509e-09
8.9378253e-09
8.7294849e-09
8.5981913e-09
8.5387606e-09
8.5232258e-09
8.6006111e-09
8.709508e-09
8.7606581e-09
8.7767134e-09
8.7640741e-09
8.6847379e-09
8.6358724e-09
8.6069547e-09
8.5907664e-09
8.582011e-09
8.5773336e-09
8.5747973e-09
8.573478e-09
0.00099542915
0.0014009185
0.00073469706
1.4910004e-05
8.9912224e-09
7.4485858e-09
6.9273673e-09
6.9257307e-09
6.8387989e-09
6.9562758e-09
7.0033983e-09
7.1546461e-09
7.2938265e-09
7.4887303e-09
7.7129549e-09
7.9888115e-09
8.3116017e-09
8.6837388e-09
9.0888521e-09
9.4991931e-09
9.8792248e-09
1.0196168e-08
1.040242e-08
1.0476799e-08
1.0454499e-08
1.0350091e-08
1.0189159e-08
9.9937608e-09
9.7786981e-09
9.5566892e-09
9.3459197e-09
9.1370847e-09
8.9244094e-09
8.7170414e-09
8.5980056e-09
8.5464995e-09
8.538249e-09
8.634132e-09
8.7292895e-09
8.7730614e-09
8.7857389e-09
8.7585897e-09
8.680174e-09
8.6330294e-09
8.6054358e-09
8.5900356e-09
8.5816918e-09
8.5772101e-09
8.5747644e-09
8.5734931e-09
0.00099871698
0.0013392218
0.00062295205
4.7650258e-06
8.5657791e-09
7.5520201e-09
7.0492485e-09
7.0565903e-09
6.9808144e-09
7.1056586e-09
7.1646249e-09
7.3248457e-09
7.4777646e-09
7.6868289e-09
7.9286748e-09
8.2233836e-09
8.5665057e-09
8.9566992e-09
9.3732405e-09
9.7843795e-09
1.0154376e-08
1.0444993e-08
1.0605414e-08
1.0640636e-08
1.0581244e-08
1.0443986e-08
1.0256366e-08
1.0039545e-08
9.8076773e-09
9.5739104e-09
9.3510548e-09
9.1337615e-09
8.9071098e-09
8.7067486e-09
8.5988456e-09
8.5561316e-09
8.5546309e-09
8.6651446e-09
8.7470805e-09
8.7845634e-09
8.794625e-09
8.7511345e-09
8.675413e-09
8.6302218e-09
8.6039756e-09
8.5893441e-09
8.5813925e-09
8.5770958e-09
8.5747361e-09
8.5735114e-09
0.0010030984
0.0012767153
0.00051840478
1.4323098e-06
8.3934258e-09
7.6626249e-09
7.1788834e-09
7.1957679e-09
7.1319205e-09
7.2646613e-09
7.3366183e-09
7.506515e-09
7.6745286e-09
7.898828e-09
8.1595207e-09
8.4743111e-09
8.8379642e-09
9.2450119e-09
9.6700321e-09
1.0078235e-08
1.0433818e-08
1.0687986e-08
1.0800088e-08
1.0797016e-08
1.0699186e-08
1.05299e-08
1.0316777e-08
1.0079684e-08
9.832411e-09
9.5885228e-09
9.3529138e-09
9.1268666e-09
8.8872978e-09
8.6985348e-09
8.6022024e-09
8.565835e-09
8.575097e-09
8.6924157e-09
8.7622002e-09
8.7935698e-09
8.8005893e-09
8.742338e-09
8.6705407e-09
8.6274932e-09
8.602589e-09
8.5886949e-09
8.5811133e-09
8.5769903e-09
8.5747125e-09
8.5735331e-09
0.0010078453
0.0012006293
0.00042172326
4.4982275e-07
8.3531908e-09
7.7808419e-09
7.3171048e-09
7.3441269e-09
7.293e-09
7.4343918e-09
7.5203182e-09
7.7009997e-09
7.8850577e-09
8.1260732e-09
8.4068273e-09
8.7425179e-09
9.1266814e-09
9.5486613e-09
9.9786566e-09
1.0379837e-08
1.0713754e-08
1.0922219e-08
1.0987821e-08
1.0944342e-08
1.0807955e-08
1.0607855e-08
1.0370556e-08
1.0114471e-08
9.8532327e-09
9.5993495e-09
9.3530664e-09
9.1162291e-09
8.8664292e-09
8.6920121e-09
8.6072114e-09
8.5758946e-09
8.6007448e-09
8.714879e-09
8.7746727e-09
8.7996886e-09
8.8030944e-09
8.7336653e-09
8.6657642e-09
8.6248963e-09
8.6012871e-09
8.5880888e-09
8.5808537e-09
8.5768937e-09
8.574694e-09
8.5735586e-09
0.0010129125
0.0011197253
0.00033461816
1.6229876e-07
8.3843724e-09
7.9079684e-09
7.4649433e-09
7.5026647e-09
7.4651902e-09
7.6158183e-09
7.7170303e-09
7.9093272e-09
8.1108579e-09
8.3697982e-09
8.6718122e-09
9.0292113e-09
9.4330721e-09
9.867331e-09
1.0298411e-08
1.0688212e-08
1.099015e-08
1.1146327e-08
1.1168319e-08
1.1081367e-08
1.0907376e-08
1.0677887e-08
1.0417856e-08
1.014423e-08
9.870572e-09
9.6037907e-09
9.3510346e-09
9.101267e-09
8.8463022e-09
8.6870569e-09
8.613535e-09
8.5870594e-09
8.6294992e-09
8.7344746e-09
8.7854372e-09
8.8040366e-09
8.8035873e-09
8.7253947e-09
8.6612091e-09
8.62246e-09
8.6000737e-09
8.5875248e-09
8.5806127e-09
8.5768058e-09
8.5746806e-09
8.5735882e-09
0.0010179708
0.0010291702
0.00025739887
7.2165594e-08
8.4570026e-09
8.0452522e-09
7.6232896e-09
7.6724721e-09
7.6495709e-09
7.8102353e-09
7.9277704e-09
8.1329786e-09
8.353094e-09
8.6314864e-09
8.9558756e-09
9.3352549e-09
9.7573717e-09
1.0200459e-08
1.0628166e-08
1.1000442e-08
1.1258998e-08
1.1361167e-08