/*--------------------------------*- C++ -*----------------------------------*\
  =========                 |
  \\      /  F ield         | OpenFOAM: The Open Source CFD Toolbox
   \\    /   O peration     | Website:  https://openfoam.org
    \\  /    A nd           | Version:  8
     \\/     M anipulation  |
\*---------------------------------------------------------------------------*/
FoamFile
{
    version     2.0;
    format      ascii;
    class       volVectorField;
    location    "0.0300106";
    object      cellDisplacement;
}
// * * * * * * * * * * * * * * * * * * * * * * * * * * * * * * * * * * * * * //

dimensions      [0 1 0 0 0 0 0];

internalField   nonuniform List<vector> 
20000
(
(-0.0025536308 0 -0.0018644744)
(-0.0025536101 0 -0.0018647195)
(-0.0025535704 0 -0.0018656363)
(-0.0025534871 0 -0.0018667844)
(-0.0025533406 0 -0.001868206)
(-0.0025531038 0 -0.0018699699)
(-0.002552739 0 -0.001872165)
(-0.0025521949 0 -0.0018749086)
(-0.0025514014 0 -0.0018783564)
(-0.0025502638 0 -0.0018827191)
(-0.002548655 0 -0.0018882817)
(-0.0025464051 0 -0.0018954333)
(-0.0025432901 0 -0.0019047037)
(-0.0025390158 0 -0.0019168146)
(-0.0025332011 0 -0.0019327462)
(-0.0025253581 0 -0.0019538261)
(-0.0025148713 0 -0.0019818399)
(-0.0025009795 0 -0.0020191998)
(-0.0024827626 0 -0.0020690842)
(-0.0024591441 0 -0.0021356664)
(-0.0024289127 0 -0.0022242979)
(-0.0023907782 0 -0.0023416546)
(-0.0023434701 0 -0.0024957212)
(-0.002285881 0 -0.0026954956)
(-0.0022172451 0 -0.0029502687)
(-0.0021373219 0 -0.0032683704)
(-0.0020465427 0 -0.0036552383)
(-0.0019460689 0 -0.0041114189)
(-0.0018377393 0 -0.0046305397)
(-0.0017239732 0 -0.0051978799)
(-0.0016074676 0 -0.0057914343)
(-0.0014909546 0 -0.0063839274)
(-0.0013769665 0 -0.0069468446)
(-0.0012676404 0 -0.0074536611)
(-0.0011643919 0 -0.0078847474)
(-0.0010681567 0 -0.008226116)
(-0.00097921622 0 -0.0084720627)
(-0.00089740563 0 -0.0086211094)
(-0.00082209442 0 -0.0086744538)
(-0.00075244577 0 -0.0086331845)
(-0.00068767524 0 -0.0084996139)
(-0.00062663803 0 -0.0082707853)
(-0.00056750097 0 -0.0079365647)
(-0.00051019823 0 -0.0074960748)
(-0.00045312552 0 -0.0069345776)
(-0.00039292253 0 -0.0062204764)
(-0.00032886649 0 -0.0053389934)
(-0.00025464405 0 -0.0042200027)
(-0.0001684156 0 -0.0028210135)
(-6.0517869e-05 0 -0.0010149291)
(-0.002544985 0 -0.0015134318)
(-0.0025449723 0 -0.0015139349)
(-0.0025449279 0 -0.0015145505)
(-0.0025448379 0 -0.0015153132)
(-0.0025446825 0 -0.0015162758)
(-0.0025444341 0 -0.0015174992)
(-0.0025440544 0 -0.0015190647)
(-0.0025434908 0 -0.0015210813)
(-0.0025426721 0 -0.0015236953)
(-0.002541502 0 -0.0015271053)
(-0.0025398513 0 -0.00153158)
(-0.0025375478 0 -0.0015374871)
(-0.0025343641 0 -0.0015453298)
(-0.0025300027 0 -0.0015557999)
(-0.0025240779 0 -0.0015698481)
(-0.0025160972 0 -0.0015887757)
(-0.0025054398 0 -0.0016143588)
(-0.0024913403 0 -0.0016490001)
(-0.0024728761 0 -0.0016959134)
(-0.0024489718 0 -0.0017593269)
(-0.0024184236 0 -0.0018446969)
(-0.0023799594 0 -0.0019588627)
(-0.0023323404 0 -0.0021100412)
(-0.0022745071 0 -0.0023075347)
(-0.002205757 0 -0.0025609992)
(-0.0021259196 0 -0.0028791744)
(-0.0020354907 0 -0.0032679403)
(-0.001935666 0 -0.0037283125)
(-0.0018282795 0 -0.0042543572)
(-0.0017156876 0 -0.0048318071)
(-0.0016004869 0 -0.0054390038)
(-0.0014852909 0 -0.0060488221)
(-0.0013725224 0 -0.0066325239)
(-0.0012642399 0 -0.0071630735)
(-0.0011618402 0 -0.0076198406)
(-0.0010662524 0 -0.0079879385)
(-0.0009777866 0 -0.0082605294)
(-0.00089631566 0 -0.0084353426)
(-0.00082125088 0 -0.0085130296)
(-0.00075179691 0 -0.0084944623)
(-0.00068716093 0 -0.0083815862)
(-0.00062623201 0 -0.0081716521)
(-0.00056726076 0 -0.0078552035)
(-0.00051003497 0 -0.0074304028)
(-0.00045297905 0 -0.0068827728)
(-0.00039289638 0 -0.0061819603)
(-0.00032878428 0 -0.0053107689)
(-0.00025467399 0 -0.004201987)
(-0.00016828671 0 -0.0028091243)
(-6.0181443e-05 0 -0.00100702)
(-0.0025351631 0 -0.0011700006)
(-0.0025351452 0 -0.0011702885)
(-0.002535094 0 -0.0011706416)
(-0.0025349953 0 -0.0011710984)
(-0.0025348289 0 -0.0011716942)
(-0.0025345662 0 -0.0011724772)
(-0.0025341682 0 -0.0011735147)
(-0.0025335809 0 -0.0011748996)
(-0.002532732 0 -0.0011767613)
(-0.0025315229 0 -0.0011792804)
(-0.0025298225 0 -0.0011827065)
(-0.0025274554 0 -0.001187388)
(-0.0025241913 0 -0.001193807)
(-0.0025197278 0 -0.001202635)
(-0.0025136754 0 -0.0012148002)
(-0.0025055353 0 -0.0012315852)
(-0.0024946826 0 -0.0012547568)
(-0.0024803464 0 -0.0012867184)
(-0.0024616019 0 -0.001330709)
(-0.0024373752 0 -0.0013910161)
(-0.0024064715 0 -0.0014732045)
(-0.0023676387 0 -0.0015842788)
(-0.002319673 0 -0.0017326886)
(-0.002261567 0 -0.001928033)
(-0.0021926865 0 -0.0021803153)
(-0.0021129352 0 -0.0024986514)
(-0.002022878 0 -0.0028893162)
(-0.001923746 0 -0.0033537367)
(-0.0018173694 0 -0.0038863566)
(-0.0017060397 0 -0.0044733196)
(-0.0015922492 0 -0.005093313)
(-0.0014784893 0 -0.0057193856)
(-0.001367067 0 -0.0063226614)
(-0.0012599569 0 -0.006875683)
(-0.0011585279 0 -0.0073569489)
(-0.0010637008 0 -0.007750714)
(-0.00097580958 0 -0.008049086)
(-0.00089476469 0 -0.0082489987)
(-0.0008200183 0 -0.0083505453)
(-0.00075081794 0 -0.0083543357)
(-0.00068636764 0 -0.0082619532)
(-0.00062558945 0 -0.0080707929)
(-0.00056681104 0 -0.0077719917)
(-0.00050969524 0 -0.0073628803)
(-0.00045268746 0 -0.0068291775)
(-0.00039273988 0 -0.0061416559)
(-0.00032860372 0 -0.0052809849)
(-0.00025461586 0 -0.004182542)
(-0.00016810915 0 -0.0027963356)
(-5.984601e-05 0 -0.00099906271)
(-0.0025241977 0 -0.000833991)
(-0.0025241724 0 -0.0008340519)
(-0.0025241118 0 -0.00083413566)
(-0.0025240015 0 -0.0008342744)
(-0.0025238206 0 -0.00083449584)
(-0.0025235398 0 -0.00083483757)
(-0.002523119 0 -0.00083535421)
(-0.0025225032 0 -0.00083612343)
(-0.002521618 0 -0.00083725817)
(-0.0025203631 0 -0.00083891747)
(-0.0025186043 0 -0.00084133093)
(-0.0025161636 0 -0.0008448223)
(-0.0025128061 0 -0.00084985192)
(-0.0025082256 0 -0.00085706756)
(-0.0025020266 0 -0.00086737743)
(-0.0024937057 0 -0.0008820527)
(-0.0024826308 0 -0.00090284505)
(-0.0024680272 0 -0.00093217167)
(-0.0024489672 0 -0.00097329673)
(-0.0024243792 0 -0.0010305753)
(-0.0023930787 0 -0.0011096848)
(-0.0023538357 0 -0.0012177997)
(-0.002305485 0 -0.0013636016)
(-0.0022470758 0 -0.0015569787)
(-0.0021780471 0 -0.0018082603)
(-0.0020983824 0 -0.0021269039)
(-0.0020087183 0 -0.0025195271)
(-0.001910324 0 -0.0029879054)
(-0.0018050242 0 -0.0035268035)
(-0.0016950439 0 -0.0041227356)
(-0.0015827677 0 -0.0047547199)
(-0.0014705596 0 -0.0053960143)
(-0.0013606067 0 -0.0060176747)
(-0.001254794 0 -0.006591916)
(-0.0011544556 0 -0.0070964763)
(-0.0010605001 0 -0.0075148221)
(-0.00097328263 0 -0.0078380717)
(-0.0008927492 0 -0.0080623738)
(-0.00081839368 0 -0.0081872509)
(-0.00074950559 0 -0.0082130115)
(-0.00068529283 0 -0.0081408825)
(-0.00062470778 0 -0.0079683399)
(-0.0005661508 0 -0.0076870423)
(-0.00050917727 0 -0.0072935899)
(-0.00045224942 0 -0.0067738572)
(-0.0003924521 0 -0.0060996119)
(-0.00032832517 0 -0.0052496881)
(-0.00025447056 0 -0.0041617013)
(-0.00016788379 0 -0.0027826676)
(-5.9511505e-05 0 -0.0009910424)
(-0.0025121284 0 -0.00050526805)
(-0.0025120952 0 -0.0005051248)
(-0.0025120243 0 -0.00050496399)
(-0.0025119008 0 -0.00050480663)
(-0.0025117029 0 -0.00050466742)
(-0.0025114004 0 -0.00050457505)
(-0.0025109519 0 -0.00050457107)
(-0.0025103012 0 -0.00050472139)
(-0.0025093721 0 -0.00050512237)
(-0.0025080623 0 -0.00050591811)
(-0.0025062347 0 -0.00050731777)
(-0.0025037079 0 -0.00050962544)
(-0.002500243 0 -0.0005132785)
(-0.0024955286 0 -0.00051890193)
(-0.0024891637 0 -0.00052738482)
(-0.0024806381 0 -0.00053997628)
(-0.0024693145 0 -0.00055843292)
(-0.0024544117 0 -0.00058516973)
(-0.0024350004 0 -0.00062349108)
(-0.0024100114 0 -0.00067782141)
(-0.0023782721 0 -0.00075395785)
(-0.0023385774 0 -0.00085925095)
(-0.0022898039 0 -0.001002617)
(-0.0022310626 0 -0.0011942247)
(-0.0021618702 0 -0.0014447113)
(-0.0020822955 0 -0.0017638362)
(-0.0019930487 0 -0.0021585132)
(-0.001895439 0 -0.0026308047)
(-0.0017912834 0 -0.003175735)
(-0.0016827381 0 -0.0037801452)
(-0.0015720756 0 -0.0044233784)
(-0.0014615298 0 -0.0050789175)
(-0.0013531628 0 -0.005717825)
(-0.0012487663 0 -0.0063120672)
(-0.0011496321 0 -0.0068387415)
(-0.0010566551 0 -0.0072805787)
(-0.00097020711 0 -0.0076277841)
(-0.0008902692 0 -0.0078757354)
(-0.00081637551 0 -0.0080233798)
(-0.0007478588 0 -0.0080706912)
(-0.00068393436 0 -0.0080185381)
(-0.00062358545 0 -0.0078644292)
(-0.00056527912 0 -0.0076004683)
(-0.00050848038 0 -0.0072226222)
(-0.00045166336 0 -0.0067168739)
(-0.0003920338 0 -0.0060558923)
(-0.00032794618 0 -0.0052168951)
(-0.00025423827 0 -0.004139497)
(-0.00016760926 0 -0.0027681242)
(-5.9176133e-05 0 -0.0009829547)
(-0.0024989864 0 -0.00018365441)
(-0.0024989417 0 -0.00018327984)
(-0.0024988565 0 -0.00018284548)
(-0.0024987157 0 -0.00018236812)
(-0.0024984966 0 -0.00018185772)
(-0.0024981683 0 -0.00018133046)
(-0.0024976879 0 -0.00018081698)
(-0.0024969976 0 -0.00018036644)
(-0.002496019 0 -0.00018005955)
(-0.0024946472 0 -0.00018001919)
(-0.0024927421 0 -0.00018043467)
(-0.0024901183 0 -0.0001815866)
(-0.0024865324 0 -0.00018389023)
(-0.0024816676 0 -0.00018794913)
(-0.0024751167 0 -0.00019463112)
(-0.0024663631 0 -0.00020517785)
(-0.0024547621 0 -0.00022133034)
(-0.0024395281 0 -0.00024552775)
(-0.0024197287 0 -0.0002811078)
(-0.0023942988 0 -0.00033257592)
(-0.002362079 0 -0.00040585775)
(-0.0023218919 0 -0.00050848668)
(-0.0022726598 0 -0.00064961382)
(-0.00221356 0 -0.00083968116)
(-0.0021441921 0 -0.0010896097)
(-0.0020647144 0 -0.0014094263)
(-0.0019759131 0 -0.0018062888)
(-0.0018791373 0 -0.0022824828)
(-0.0017761939 0 -0.0028332405)
(-0.0016691669 0 -0.0034456883)
(-0.0015602137 0 -0.0040994765)
(-0.0014514339 0 -0.0047683391)
(-0.001344762 0 -0.0054233999)
(-0.001241893 0 -0.0060364595)
(-0.001144071 0 -0.0065840737)
(-0.0010521737 0 -0.0070483119)
(-0.00096658738 0 -0.0074185309)
(-0.00088732588 0 -0.0076893623)
(-0.00081396383 0 -0.0078591743)
(-0.00074587611 0 -0.007927579)
(-0.00068229075 0 -0.0078950878)
(-0.00062222031 0 -0.0077591933)
(-0.00056419481 0 -0.0075123797)
(-0.00050760264 0 -0.0071500572)
(-0.00045092771 0 -0.0066582893)
(-0.0003914835 0 -0.0060105397)
(-0.00032746673 0 -0.0051826464)
(-0.00025391976 0 -0.0041159605)
(-0.00016728623 0 -0.0027527235)
(-5.8840128e-05 0 -0.00097479057)
(-0.0024848033 0 0.00013096881)
(-0.002484747 0 0.00013154672)
(-0.0024846473 0 0.00013222492)
(-0.002484488 0 0.00013299686)
(-0.0024842456 0 0.00013386544)
(-0.0024838878 0 0.00013482287)
(-0.0024833704 0 0.0001358514)
(-0.0024826341 0 0.00013691275)
(-0.0024815982 0 0.00013794201)
(-0.0024801553 0 0.00013883092)
(-0.0024781617 0 0.00013940939)
(-0.0024754282 0 0.0001394158)
(-0.0024717063 0 0.00013845684)
(-0.0024666734 0 0.00013595095)
(-0.0024599157 0 0.0001310478)
(-0.002450909 0 0.00012252579)
(-0.0024390022 0 0.00010863552)
(-0.0024234033 0 8.6933699e-05)
(-0.0024031784 0 5.4031564e-05)
(-0.0023772667 0 5.3390786e-06)
(-0.0023445247 0 -6.5210353e-05)
(-0.0023038049 0 -0.0001653399)
(-0.0022540797 0 -0.00030443777)
(-0.0021945973 0 -0.00049321001)
(-0.0021250453 0 -0.00074283984)
(-0.0020456759 0 -0.0010635812)
(-0.0019573519 0 -0.0014627899)
(-0.0018614619 0 -0.0019429118)
(-0.0017597996 0 -0.0024993306)
(-0.0016543732 0 -0.0031194176)
(-0.0015472206 0 -0.0037831207)
(-0.0014403054 0 -0.0044644352)
(-0.0013354312 0 -0.0051346058)
(-0.0012341943 0 -0.0057653361)
(-0.0011377858 0 -0.0063327455)
(-0.0010470648 0 -0.0068183003)
(-0.00096242827 0 -0.0072105824)
(-0.00088392191 0 -0.0075035035)
(-0.00081115928 0 -0.0076948566)
(-0.00074355794 0 -0.0077838699)
(-0.00068036115 0 -0.0077706937)
(-0.00062061164 0 -0.0076527676)
(-0.00056289745 0 -0.0074228903)
(-0.00050654369 0 -0.0070759868)
(-0.00045004126 0 -0.0065981684)
(-0.0003908019 0 -0.0059636177)
(-0.0003268848 0 -0.0051469649)
(-0.00025351494 0 -0.0040911225)
(-0.00016691354 0 -0.0027364741)
(-5.850163e-05 0 -0.00096654335)
(-0.0024696106 0 0.00043877391)
(-0.0024695391 0 0.00043958014)
(-0.0024694209 0 0.00044052718)
(-0.002469239 0 0.00044161381)
(-0.0024689693 0 0.00044284819)
(-0.0024685781 0 0.0004442352)
(-0.0024680196 0 0.0004457683)
(-0.0024672324 0 0.00044742526)
(-0.0024661334 0 0.00044915627)
(-0.0024646119 0 0.00045087277)
(-0.0024625206 0 0.00045242368)
(-0.0024596658 0 0.00045356908)
(-0.0024557935 0 0.00045393666)
(-0.0024505748 0 0.00045296479)
(-0.0024435888 0 0.00044982259)
(-0.0024343039 0 0.0004432938)
(-0.0024220608 0 0.00043164081)
(-0.0024060627 0 0.00041238915)
(-0.0023853738 0 0.00038210375)
(-0.0023589396 0 0.00033609526)
(-0.0023256344 0 0.00026814098)
(-0.0022843434 0 0.00017032491)
(-0.0022340932 0 3.3020496e-05)
(-0.0021742079 0 -0.00015473213)
(-0.0021044678 0 -0.00040435138)
(-0.0020252224 0 -0.00072628248)
(-0.0019374121 0 -0.0011280256)
(-0.0018424634 0 -0.0016121253)
(-0.001742152 0 -0.0021740701)
(-0.0016384063 0 -0.0028014372)
(-0.001533142 0 -0.0034744548)
(-0.0014281836 0 -0.0041673991)
(-0.0013252024 0 -0.0048516769)
(-0.0012256944 0 -0.0054989682)
(-0.0011307947 0 -0.0060850416)
(-0.0010413404 0 -0.0065908357)
(-0.00095773754 0 -0.0070042195)
(-0.00088006138 0 -0.0073184192)
(-0.00080796404 0 -0.0075306577)
(-0.00074090457 0 -0.0076397622)
(-0.00067814537 0 -0.0076455221)
(-0.00061875827 0 -0.0075452855)
(-0.00056138639 0 -0.0073321108)
(-0.00050530213 0 -0.0070004936)
(-0.00044900275 0 -0.0065365751)
(-0.00038998761 0 -0.0059151706)
(-0.00032620034 0 -0.0051098914)
(-0.00025302458 0 -0.0040650152)
(-0.00016649179 0 -0.0027193934)
(-5.8161012e-05 0 -0.00095820684)
(-0.002453444 0 0.00073987742)
(-0.0024533572 0 0.00074088749)
(-0.0024532197 0 0.00074207844)
(-0.0024530138 0 0.00074345984)
(-0.0024527138 0 0.00074505196)
(-0.0024522849 0 0.00074686764)
(-0.0024516795 0 0.00074891274)
(-0.0024508343 0 0.00075117563)
(-0.0024496635 0 0.00075362204)
(-0.0024480534 0 0.00075617719)
(-0.0024458527 0 0.00075870898)
(-0.0024428628 0 0.000760996)
(-0.002438824 0 0.00076268689)
(-0.0024334006 0 0.00076324081)
(-0.0024261637 0 0.00076184345)
(-0.0024165733 0 0.00075729567)
(-0.0024039633 0 0.00074784687)
(-0.0023875302 0 0.0007310095)
(-0.0023663381 0 0.00070328154)
(-0.00233934 0 0.00065986687)
(-0.0023054312 0 0.00059436186)
(-0.0022635315 0 0.00049866262)
(-0.0022127265 0 0.00036290055)
(-0.0021524213 0 0.00017587432)
(-0.0020824932 0 -7.4042859e-05)
(-0.0020033928 0 -0.00039744671)
(-0.0019161371 0 -0.00080193391)
(-0.0018221882 0 -0.0012900881)
(-0.0017232988 0 -0.0018574507)
(-0.0016213133 0 -0.0024917705)
(-0.001518021 0 -0.0031735453)
(-0.0014151063 0 -0.0038773401)
(-0.0013141069 0 -0.0045747694)
(-0.001216418 0 -0.0052375502)
(-0.0011231153 0 -0.00584119)
(-0.001035013 0 -0.0063661587)
(-0.00095252316 0 -0.0067996828)
(-0.00087574944 0 -0.0071343371)
(-0.00080438081 0 -0.0073667858)
(-0.00073791787 0 -0.0074954417)
(-0.00067564378 0 -0.0075197308)
(-0.0006166603 0 -0.0074368803)
(-0.00055966173 0 -0.0072401543)
(-0.00050387798 0 -0.0069236698)
(-0.00044781136 0 -0.0064735767)
(-0.00038904132 0 -0.0058652619)
(-0.00032541161 0 -0.0050714525)
(-0.00025244834 0 -0.0040376672)
(-0.00016601991 0 -0.0027014928)
(-5.7816365e-05 0 -0.00094977317)
(-0.0024363318 0 0.0010344436)
(-0.0024362256 0 0.0010356816)
(-0.0024360645 0 0.0010371424)
(-0.0024358299 0 0.0010388394)
(-0.0024354953 0 0.0010407979)
(-0.0024350242 0 0.0010430425)
(-0.0024343674 0 0.0010455894)
(-0.0024334588 0 0.0010484435)
(-0.0024322099 0 0.0010515848)
(-0.0024305033 0 0.0010549587)
(-0.0024281833 0 0.0010584515)
(-0.0024250458 0 0.0010618634)
(-0.0024208248 0 0.0010648636)
(-0.0024151773 0 0.0010669306)
(-0.0024076661 0 0.0010672683)
(-0.0023977429 0 0.001064681)
(-0.0023847327 0 0.001057424)
(-0.0023678279 0 0.0010429669)
(-0.0023460925 0 0.0010177396)
(-0.0023184892 0 0.00097682761)
(-0.0022839392 0 0.00091359837)
(-0.0022413954 0 0.00081979518)
(-0.0021900097 0 0.00068529641)
(-0.0021292721 0 0.00049867389)
(-0.0020591616 0 0.00024812588)
(-0.0019802326 0 -7.7059766e-05)
(-0.0018935777 0 -0.0004845207)
(-0.0018006907 0 -0.00097682118)
(-0.0017032956 0 -0.001549515)
(-0.0016031478 0 -0.0021904893)
(-0.0015019074 0 -0.0028804955)
(-0.0014011172 0 -0.0035944043)
(-0.001302181 0 -0.0043040673)
(-0.0012063937 0 -0.0049813028)
(-0.0011147698 0 -0.0056014303)
(-0.0010280982 0 -0.0061445227)
(-0.00094679601 0 -0.0065972232)
(-0.00087099282 0 -0.0069514959)
(-0.00080041387 0 -0.0072034571)
(-0.00073459982 0 -0.0073510979)
(-0.00067285746 0 -0.0073934818)
(-0.00061431757 0 -0.0073276845)
(-0.00055772338 0 -0.0071471309)
(-0.00050227033 0 -0.0068455997)
(-0.00044646615 0 -0.0064092387)
(-0.00038796181 0 -0.0058139375)
(-0.00032451861 0 -0.0050316899)
(-0.00025178702 0 -0.0040091121)
(-0.00016549848 0 -0.0026827898)
(-5.7468177e-05 0 -0.00094123843)
(-0.002418302 0 0.0013225819)
(-0.0024181766 0 0.0013240227)
(-0.0024179916 0 0.0013257264)
(-0.0024177273 0 0.0013277168)
(-0.0024173554 0 0.0013300307)
(-0.0024168382 0 0.0013327012)
(-0.0024161243 0 0.0013357566)
(-0.0024151453 0 0.0013392119)
(-0.0024138095 0 0.0013430631)
(-0.0024119959 0 0.0013472694)
(-0.0024095441 0 0.0013517354)
(-0.0024062443 0 0.0013562801)
(-0.0024018238 0 0.0013605931)
(-0.0023959314 0 0.001364174)
(-0.0023881211 0 0.0013662422)
(-0.0023778351 0 0.001365617)
(-0.0023643909 0 0.001360535)
(-0.0023469756 0 0.001348439)
(-0.0023246566 0 0.0013256534)
(-0.0022964063 0 0.001287167)
(-0.0022611809 0 0.001226003)
(-0.0022179588 0 0.0011338656)
(-0.0021659692 0 0.001000332)
(-0.0021047914 0 0.00081377243)
(-0.002034509 0 0.00056224292)
(-0.001955784 0 0.00023495402)
(-0.0018697809 0 -0.00017572625)
(-0.0017780213 0 -0.00067228062)
(-0.0016821942 0 -0.001250236)
(-0.0015839606 0 -0.0018975886)
(-0.0014848481 0 -0.0025953347)
(-0.0013862578 0 -0.0033186576)
(-0.0012894597 0 -0.0040396795)
(-0.0011956496 0 -0.0047303735)
(-0.0011057792 0 -0.0053659458)
(-0.0010206118 0 -0.0059261298)
(-0.00094056686 0 -0.0063970502)
(-0.00086579899 0 -0.0067700991)
(-0.00079606784 0 -0.0070408629)
(-0.00073095371 0 -0.0072069051)
(-0.000669788 0 -0.0072669265)
(-0.00061173102 0 -0.0072178277)
(-0.00055557202 0 -0.007053152)
(-0.00050047963 0 -0.0067663752)
(-0.00044496668 0 -0.0063436303)
(-0.00038674976 0 -0.0057612608)
(-0.00032351991 0 -0.0049906344)
(-0.00025104014 0 -0.0039793784)
(-0.00016492649 0 -0.0026632975)
(-5.7114564e-05 0 -0.00093259523)
(-0.0023993843 0 0.00160445)
(-0.0023992356 0 0.0016061162)
(-0.0023990222 0 0.001608085)
(-0.0023987235 0 0.0016103856)
(-0.0023983102 0 0.0016130607)
(-0.0023977424 0 0.0016161551)
(-0.0023969667 0 0.0016197083)
(-0.0023959116 0 0.0016237515)
(-0.0023944822 0 0.001628295)
(-0.002392553 0 0.0016333177)
(-0.0023899585 0 0.0016387427)
(-0.0023864826 0 0.0016444097)
(-0.0023818452 0 0.0016500293)
(-0.0023756864 0 0.0016551207)
(-0.0023675508 0 0.0016589223)
(-0.0023568706 0 0.0016602594)
(-0.0023429559 0 0.0016573574)
(-0.0023249898 0 0.0016476169)
(-0.002302048 0 0.0016271924)
(-0.0022731074 0 0.0015910943)
(-0.0022371816 0 0.0015316887)
(-0.002193247 0 0.001440981)
(-0.0021406362 0 0.0013080823)
(-0.0020790153 0 0.0011212157)
(-0.002008578 0 0.00086833594)
(-0.0019300956 0 0.00053860183)
(-0.0018448014 0 0.00012444759)
(-0.0017542381 0 -0.00037647662)
(-0.0016600534 0 -0.00095963537)
(-0.0015638085 0 -0.0016131102)
(-0.0014668961 0 -0.0023181283)
(-0.0013705748 0 -0.0030502021)
(-0.0012759825 0 -0.0037817424)
(-0.0011842176 0 -0.004484935)
(-0.0010961689 0 -0.0051349323)
(-0.0010125723 0 -0.0057111943)
(-0.00093384928 0 -0.0061993824)
(-0.00086017709 0 -0.0065903609)
(-0.00079134888 0 -0.0068792021)
(-0.00072698312 0 -0.0070630414)
(-0.00066643767 0 -0.0071402201)
(-0.00060890149 0 -0.0071074395)
(-0.00055320814 0 -0.0069583261)
(-0.00049850547 0 -0.0066860813)
(-0.00044331235 0 -0.0062768182)
(-0.00038540417 0 -0.0057072797)
(-0.00032241558 0 -0.0049483287)
(-0.0002502085 0 -0.0039485006)
(-0.00016430456 0 -0.0026430345)
(-5.6756057e-05 0 -0.00092384069)
(-0.0023796075 0 0.0018801544)
(-0.0023794354 0 0.0018820231)
(-0.0023791931 0 0.0018842343)
(-0.0023788585 0 0.001886827)
(-0.0023784006 0 0.0018898557)
(-0.0023777777 0 0.0018933735)
(-0.0023769338 0 0.0018974324)
(-0.0023757949 0 0.0019020741)
(-0.0023742623 0 0.0019073243)
(-0.0023722061 0 0.001913176)
(-0.0023694554 0 0.0019195712)
(-0.0023657876 0 0.0019263681)
(-0.002360914 0 0.0019332999)
(-0.0023544658 0 0.0019399077)
(-0.0023459761 0 0.0019454538)
(-0.0023348672 0 0.0019487808)
(-0.0023204439 0 0.0019480615)
(-0.0023018824 0 0.0019407283)
(-0.0022782856 0 0.0019224707)
(-0.002248661 0 0.001888134)
(-0.0022119681 0 0.0018307411)
(-0.0021672815 0 0.0017412732)
(-0.002114038 0 0.0016086478)
(-0.0020519769 0 0.0014210867)
(-0.001981407 0 0.0011664775)
(-0.0019032126 0 0.00083394925)
(-0.0018186894 0 0.00041605707)
(-0.0017293949 0 -8.9357746e-05)
(-0.0016369281 0 -0.00067766941)
(-0.0015427451 0 -0.0013370238)
(-0.0014481006 0 -0.0020488721)
(-0.0013541123 0 -0.0027890646)
(-0.0012617867 0 -0.0035303216)
(-0.0011721283 0 -0.0042450902)
(-0.0010859624 0 -0.00490853)
(-0.0010039979 0 -0.0054998794)
(-0.00092665634 0 -0.0060043965)
(-0.00085413653 0 -0.0064124591)
(-0.00078626337 0 -0.0067186466)
(-0.00072269263 0 -0.0069196669)
(-0.00066280918 0 -0.0070135052)
(-0.00060583072 0 -0.006996644)
(-0.00055063296 0 -0.0068627614)
(-0.0004963487 0 -0.0066048089)
(-0.0004415031 0 -0.0062088725)
(-0.00038392579 0 -0.0056520576)
(-0.00032120443 0 -0.0049048067)
(-0.00024929152 0 -0.0039165073)
(-0.00016363167 0 -0.0026220152)
(-5.6390813e-05 0 -0.00091496844)
(-0.0023589959 0 0.0021498428)
(-0.0023587966 0 0.0021519318)
(-0.0023585211 0 0.0021544037)
(-0.0023581463 0 0.0021573037)
(-0.0023576394 0 0.0021606932)
(-0.0023569565 0 0.0021646359)
(-0.0023560395 0 0.0021691948)
(-0.0023548106 0 0.0021744265)
(-0.0023531674 0 0.0021803708)
(-0.0023509748 0 0.0021870393)
(-0.0023480562 0 0.0021943921)
(-0.0023441812 0 0.0022023096)
(-0.0023390526 0 0.0022105463)
(-0.0023322904 0 0.0022186705)
(-0.002323416 0 0.0022259745)
(-0.0023118362 0 0.0022313865)
(-0.0022968709 0 0.0022327604)
(-0.0022777257 0 0.0022272452)
(-0.0022534778 0 0.0022108741)
(-0.0022231208 0 0.0021780594)
(-0.0021856046 0 0.0021224367)
(-0.0021401508 0 0.0020340925)
(-0.0020862072 0 0.0019020815)
(-0.002023715 0 0.0017134101)
(-0.0019530418 0 0.0014566839)
(-0.0018751878 0 0.0011209993)
(-0.0017915035 0 0.00069910526)
(-0.0017035532 0 0.00018907893)
(-0.0016128804 0 -0.00040433926)
(-0.0015208299 0 -0.0010693425)
(-0.001428517 0 -0.0017875963)
(-0.0013369193 0 -0.0025353058)
(-0.0012469143 0 -0.0032855086)
(-0.0011594163 0 -0.004010966)
(-0.0010751876 0 -0.0046868915)
(-0.00099490979 0 -0.0052923606)
(-0.00091900383 0 -0.0058122784)
(-0.00084768852 0 -0.0062365814)
(-0.00078081915 0 -0.0065593754)
(-0.0007180873 0 -0.0067769461)
(-0.00065890593 0 -0.0068869282)
(-0.00060252047 0 -0.0068855663)
(-0.00054784756 0 -0.0067665634)
(-0.00049400944 0 -0.0065226426)
(-0.00043953866 0 -0.0061398607)
(-0.00038231384 0 -0.0055956437)
(-0.00031988664 0 -0.0048601121)
(-0.00024829003 0 -0.0038834341)
(-0.00016290849 0 -0.0026002589)
(-5.6019455e-05 0 -0.00090597736)
(-0.002337582 0 0.002413628)
(-0.0023373537 0 0.0024159316)
(-0.0023370426 0 0.0024186585)
(-0.0023366242 0 0.0024218615)
(-0.0023360641 0 0.0024256102)
(-0.0023353161 0 0.0024299784)
(-0.0023343192 0 0.00243504)
(-0.0023329923 0 0.0024408637)
(-0.0023312289 0 0.0024475051)
(-0.0023288885 0 0.0024549916)
(-0.0023257879 0 0.0024633025)
(-0.0023216889 0 0.0024723373)
(-0.0023162847 0 0.0024818724)
(-0.0023091838 0 0.0024914932)
(-0.0022998934 0 0.0025005003)
(-0.002287831 0 0.0025077698)
(-0.0022723402 0 0.0025109771)
(-0.0022525986 0 0.0025070487)
(-0.0022276379 0 0.0024923828)
(-0.0021964723 0 0.0024613589)
(-0.0021581316 0 0.0024069009)
(-0.0021118651 0 0.0023193639)
(-0.0020572108 0 0.0021877639)
(-0.0019942645 0 0.0019982448)
(-0.0019235236 0 0.0017390133)
(-0.0018460697 0 0.001399807)
(-0.0017632974 0 0.00097364546)
(-0.0016767697 0 0.00045889088)
(-0.0015879672 0 -0.00013958621)
(-0.0014981182 0 -0.00081001372)
(-0.0014081961 0 -0.0015342669)
(-0.0013190412 0 -0.0022889187)
(-0.0012314041 0 -0.0030473305)
(-0.0011461136 0 -0.0037826253)
(-0.00106387 0 -0.0044701172)
(-0.00098532773 0 -0.0050887643)
(-0.00091090664 0 -0.0056231723)
(-0.00084084405 0 -0.0060628795)
(-0.00077502404 0 -0.0064015404)
(-0.00071317282 0 -0.0066350239)
(-0.00065473162 0 -0.0067606219)
(-0.00059897324 0 -0.0067743239)
(-0.00054485372 0 -0.0066698365)
(-0.00049148889 0 -0.0064396713)
(-0.00043741935 0 -0.0060698535)
(-0.00038056914 0 -0.0055381013)
(-0.00031846126 0 -0.004814282)
(-0.00024720342 0 -0.0038493107)
(-0.00016213404 0 -0.0025777818)
(-5.564013e-05 0 -0.00089686138)
(-0.0023153869 0 0.002671634)
(-0.0023151274 0 0.0026741508)
(-0.0023147781 0 0.0026771313)
(-0.002314313 0 0.0026806353)
(-0.0023136957 0 0.0026847413)
(-0.0023128777 0 0.0026895326)
(-0.0023117949 0 0.0026950947)
(-0.0023103627 0 0.0027015094)
(-0.0023084698 0 0.0027088469)
(-0.0023059702 0 0.0027171511)
(-0.0023026737 0 0.0027264196)
(-0.0022983336 0 0.0027365731)
(-0.0022926326 0 0.0027474103)
(-0.0022851675 0 0.0027585444)
(-0.0022754369 0 0.0027692822)
(-0.0022629054 0 0.0027779834)
(-0.0022468657 0 0.002782768)
(-0.0022264562 0 0.0027806751)
(-0.0022007335 0 0.0027677171)
(-0.002168724 0 0.0027382574)
(-0.002129514 0 0.0026848685)
(-0.0020824152 0 0.0025978207)
(-0.0020270838 0 0.0024657538)
(-0.001963642 0 0.0022756169)
(-0.0018929014 0 0.002013472)
(-0.0018159157 0 0.0016703704)
(-0.0017341335 0 0.0012396857)
(-0.0016491091 0 0.00072009504)
(-0.0015622532 0 0.0001166108)
(-0.0014746714 0 -0.00055902218)
(-0.0013871945 0 -0.0012888801)
(-0.0013005282 0 -0.0020499254)
(-0.0012152991 0 -0.002815837)
(-0.0011322563 0 -0.0035601522)
(-0.0010520388 0 -0.0042583184)
(-0.00097527471 0 -0.0048892276)
(-0.00090238223 0 -0.0054372312)
(-0.000833616 0 -0.0058915137)
(-0.00076888734 0 -0.0062452993)
(-0.00070795554 0 -0.0064940494)
(-0.00065029067 0 -0.006634722)
(-0.00059519165 0 -0.0066630356)
(-0.00054165307 0 -0.0065726826)
(-0.00048878768 0 -0.0063559788)
(-0.00043514523 0 -0.0059989187)
(-0.00037869117 0 -0.0054794816)
(-0.00031692859 0 -0.0047673613)
(-0.0002460325 0 -0.0038141731)
(-0.00016130898 0 -0.0025546038)
(-5.525354e-05 0 -0.00088762089)
(-0.002292434 0 0.00292398)
(-0.0022921409 0 0.0029267106)
(-0.0022917506 0 0.0029299447)
(-0.0022912353 0 0.0029337499)
(-0.0022905566 0 0.0029382127)
(-0.0022896634 0 0.0029434265)
(-0.0022884886 0 0.0029494878)
(-0.0022869434 0 0.0029564916)
(-0.0022849117 0 0.0029645223)
(-0.0022822413 0 0.0029736408)
(-0.0022787346 0 0.0029838635)
(-0.0022741352 0 0.0029951327)
(-0.002268114 0 0.0030072747)
(-0.0022602528 0 0.003019947)
(-0.0022500908 0 0.0030321787)
(-0.002237072 0 0.0030423523)
(-0.0022204299 0 0.0030487237)
(-0.0021993123 0 0.0030483193)
(-0.0021727823 0 0.0030369739)
(-0.0021398877 0 0.0030089116)
(-0.0020997694 0 0.0029564376)
(-0.0020518206 0 0.0028695735)
(-0.0019958005 0 0.0027366764)
(-0.0019319519 0 0.0025449849)
(-0.001861222 0 0.0022801156)
(-0.0017847788 0 0.0019327396)
(-0.001704069 0 0.0014972834)
(-0.0016206306 0 0.00097276271)
(-0.001535797 0 0.0003643301)
(-0.0014505456 0 -0.00031629007)
(-0.0013655635 0 -0.0010513713)
(-0.0012814263 0 -0.0018182849)
(-0.0011986388 0 -0.0025910171)
(-0.0011178775 0 -0.0033435704)
(-0.0010397208 0 -0.0040515563)
(-0.00096477181 0 -0.0046938407)
(-0.00089344684 0 -0.0052545668)
(-0.00082601666 0 -0.0057226083)
(-0.00076241804 0 -0.0060907822)
(-0.00070244215 0 -0.0063541506)
(-0.00064558768 0 -0.0065093498)
(-0.00059117887 0 -0.0065518113)
(-0.0005382479 0 -0.0064752009)
(-0.00048590738 0 -0.0062716515)
(-0.00043271699 0 -0.0059271269)
(-0.00037668088 0 -0.0054198476)
(-0.0003152879 0 -0.0047193897)
(-0.0002447767 0 -0.0037780527)
(-0.00016043238 0 -0.0025307426)
(-5.4857869e-05 0 -0.000878251)
(-0.0022687472 0 0.0031707818)
(-0.0022684182 0 0.0031737254)
(-0.0022679838 0 0.0031772124)
(-0.0022674148 0 0.0031813175)
(-0.0022666704 0 0.003186136)
(-0.0022656969 0 0.0031917706)
(-0.0022644236 0 0.0031983292)
(-0.0022627576 0 0.0032059194)
(-0.0022605775 0 0.0032146399)
(-0.0022577247 0 0.0032245671)
(-0.0022539934 0 0.0032357338)
(-0.0022491174 0 0.0032480984)
(-0.0022427558 0 0.0032614974)
(-0.0022344985 0 0.0032755813)
(-0.0022239024 0 0.0032891288)
(-0.0022103377 0 0.0033008945)
(-0.002193051 0 0.0033088783)
(-0.0021711815 0 0.0033100914)
(-0.0021437987 0 0.0033002573)
(-0.0021099766 0 0.0032734389)
(-0.0020689153 0 0.003221701)
(-0.0020201067 0 0.0031346976)
(-0.0019634142 0 0.0030005876)
(-0.0018992437 0 0.002806354)
(-0.0018285185 0 0.0025389286)
(-0.0017527207 0 0.002186907)
(-0.0016731696 0 0.001746452)
(-0.0015914011 0 0.0012169249)
(-0.0015086646 0 0.00060361301)
(-0.0014258029 0 -8.1776837e-05)
(-0.0013433598 0 -0.00082170639)
(-0.0012617857 0 -0.001593986)
(-0.0011814662 0 -0.0023728833)
(-0.0011030134 0 -0.0031329254)
(-0.0010269458 0 -0.0038499048)
(-0.00095384296 0 -0.0045027052)
(-0.00088411909 0 -0.0050752997)
(-0.00081806008 0 -0.0055562968)
(-0.00075562659 0 -0.0059381251)
(-0.00069664001 0 -0.0062154602)
(-0.00064062791 0 -0.0063846293)
(-0.00058693829 0 -0.006440762)
(-0.00053464039 0 -0.0063774885)
(-0.00048284908 0 -0.0061867714)
(-0.00043013497 0 -0.0058545457)
(-0.00037453797 0 -0.0053592517)
(-0.00031353964 0 -0.0046704137)
(-0.00024343685 0 -0.0037409868)
(-0.00015950491 0 -0.0025062189)
(-5.4453861e-05 0 -0.00086875298)
(-0.0022443485 0 0.0034121534)
(-0.0022439809 0 0.0034153103)
(-0.0022434996 0 0.0034190506)
(-0.0022428732 0 0.0034234558)
(-0.0022420588 0 0.0034286296)
(-0.0022409995 0 0.0034346847)
(-0.0022396212 0 0.0034417395)
(-0.0022378264 0 0.0034499144)
(-0.0022354882 0 0.0034593223)
(-0.0022324408 0 0.0034700556)
(-0.0022284699 0 0.0034821654)
(-0.0022232988 0 0.0034956317)
(-0.0022165746 0 0.0035103243)
(-0.0022079209 0 0.0035255884)
(-0.0021968506 0 0.0035405353)
(-0.0021827118 0 0.003553807)
(-0.0021647418 0 0.0035633492)