/*--------------------------------*- C++ -*----------------------------------*\
  =========                 |
  \\      /  F ield         | OpenFOAM: The Open Source CFD Toolbox
   \\    /   O peration     | Website:  https://openfoam.org
    \\  /    A nd           | Version:  8
     \\/     M anipulation  |
\*---------------------------------------------------------------------------*/
FoamFile
{
    version     2.0;
    format      ascii;
    class       volScalarField;
    location    "0.0300106";
    object      Ma;
}
// * * * * * * * * * * * * * * * * * * * * * * * * * * * * * * * * * * * * * //

dimensions      [0 0 0 0 0 0 0];

internalField   nonuniform List<scalar> 
20000
(
0.60032149
0.70019824
0.76563626
0.822894
0.87715323
0.92942396
0.95460241
0.95964854
0.95608294
0.95692744
0.95435057
0.95386749
0.95140936
0.94979031
0.94697093
0.94422058
0.94057736
0.93650168
0.93153965
0.92573614
0.91884592
0.91087144
0.90179809
0.89156243
0.88028052
0.86802905
0.85506408
0.84169662
0.82838635
0.81557803
0.80371579
0.79312265
0.78397296
0.77632776
0.77020161
0.76551306
0.76190297
0.75967835
0.75860349
0.75883965
0.76068535
0.761638
0.75850054
0.75436844
0.75305979
0.75307575
0.75355774
0.75380081
0.7538944
0.75392282
0.60241972
0.70298266
0.76926526
0.827149
0.88177365
0.93433064
0.95694687
0.96157835
0.9579511
0.95883025
0.95620707
0.95570636
0.95321067
0.95154112
0.94865182
0.94579068
0.94200836
0.93771953
0.93248118
0.92636266
0.91923637
0.9110568
0.90183512
0.89146062
0.87996651
0.86746088
0.85422655
0.84065498
0.82722078
0.81438544
0.80258579
0.79212565
0.78314429
0.77568121
0.76975818
0.76510016
0.76167601
0.75969392
0.75873083
0.75956473
0.76112499
0.76156494
0.7574156
0.75423672
0.75314051
0.75311124
0.75354994
0.75378976
0.75388686
0.75392013
0.60530606
0.70692905
0.77380705
0.83215524
0.88705223
0.93940552
0.95904036
0.96316924
0.95943624
0.96031566
0.95761922
0.95702985
0.95451673
0.95275681
0.94975965
0.94674706
0.94280084
0.93831374
0.93292465
0.92664886
0.9193798
0.91104644
0.90162205
0.89100171
0.87919892
0.86639466
0.8529112
0.83916169
0.825644
0.81282849
0.80114116
0.79086107
0.78209125
0.77485661
0.76915644
0.76457811
0.76141462
0.75969007
0.7588664
0.76024511
0.76136785
0.76142254
0.75686336
0.75408963
0.75316303
0.75310807
0.75354734
0.75378609
0.7538844
0.75391946
0.60755383
0.71003515
0.77751661
0.83637177
0.8915926
0.94366184
0.96040219
0.96420274
0.96036363
0.96123162
0.95845881
0.95787668
0.95525244
0.95339174
0.95029019
0.94714847
0.94309333
0.93848416
0.93300005
0.92661146
0.91921346
0.91069742
0.90101051
0.89007217
0.87797346
0.86488831
0.85117646
0.83728637
0.82373191
0.81098688
0.79946265
0.78940924
0.78089448
0.7739296
0.76845105
0.76403489
0.76115224
0.75967889
0.75910968
0.76084568
0.76161308
0.76098918
0.75638421
0.75395186
0.75316437
0.75310278
0.75354215
0.7537819
0.75388229
0.75391877
0.60962908
0.71294478
0.78099061
0.84033384
0.89586922
0.94743637
0.96123172
0.96479884
0.9609323
0.96177724
0.95896464
0.95831525
0.9555381
0.95360461
0.95044461
0.94722896
0.94310828
0.93840556
0.93281319
0.92627725
0.91868262
0.90989814
0.89991527
0.88867041
0.87627013
0.86291729
0.84900568
0.83501373
0.82147088
0.80884858
0.79753906
0.78775971
0.77954539
0.77288902
0.76762817
0.76347413
0.7608946
0.75964314
0.75935806
0.76126388
0.76186616
0.76041135
0.75601339
0.75380387
0.75312379
0.75309148
0.75353706
0.75377827
0.75388073
0.75391827
0.61129679
0.71546657
0.78407569
0.84391301
0.89980014
0.95062013
0.9615432
0.96517488
0.96108673
0.96202691
0.95905688
0.95846054
0.95556927
0.95357397
0.95036191
0.94705682
0.94284915
0.93801318
0.93225104
0.925498
0.91766754
0.90861898
0.89834203
0.88679002
0.87409982
0.86049903
0.8464177
0.83236567
0.81888425
0.80643721
0.79539343
0.7859355
0.77806636
0.77174787
0.7667149
0.76290774
0.76065213
0.7595867
0.75966078
0.76159075
0.7620937
0.75977961
0.75564526
0.75364529
0.7530447
0.75307746
0.75353127
0.75377453
0.75387919
0.75391781
0.61294452
0.71788883
0.78703152
0.84733173
0.90361086
0.95337617
0.96158219
0.96504539
0.96095091
0.96184016
0.9588728
0.95810923
0.9553436
0.95326962
0.94997699
0.946542
0.94220101
0.93718814
0.93124802
0.92427847
0.91620401
0.90687703
0.89630347
0.88444953
0.87147695
0.85764755
0.84342828
0.82935884
0.8159888
0.80376899
0.79304143
0.78395264
0.77646991
0.77050277
0.76573189
0.76233826
0.76042244
0.75948397
0.76005154
0.76183185
0.76223851
0.75916169
0.75529622
0.75347403
0.75293697
0.75306246
0.75352539
0.75377081
0.75387768
0.75391737
0.61441171
0.72013764
0.78981293
0.85055794
0.90726996
0.95567206
0.96131412
0.96478904
0.9606087
0.96149527
0.95843443
0.95763418
0.95475522
0.95257872
0.94919247
0.94562301
0.94114983
0.9359603
0.92982801
0.92262767
0.91429989
0.90469093
0.89381788
0.88166395
0.86841943
0.85438243
0.84005855
0.82601583
0.81280737
0.80086636
0.79050561
0.78183332
0.7747702
0.76915146
0.76471097
0.76176794
0.76019597
0.75939931
0.76041352
0.76200286
0.76227454
0.7585835
0.75495862
0.75329382
0.75281804
0.75304798
0.75351947
0.75376709
0.75387616
0.75391694
0.6157305
0.7221539
0.79234212
0.85351931
0.91067019
0.95745689
0.96067048
0.96411674
0.95988108
0.96072335
0.95761314
0.9567477
0.95380387
0.95152553
0.94804418
0.94433279
0.93971834
0.93434416
0.92801421
0.92057735
0.91198723
0.9020877
0.8909107
0.87845824
0.86495106
0.85072788
0.83633363
0.82236196
0.80936466
0.79775343
0.78781016
0.77959863
0.77297529
0.76770153
0.76368268
0.76119593
0.75994991
0.7593505
0.76079506
0.76213461
0.7622335
0.75803748
0.75463461
0.75310944
0.7526888
0.7530337
0.75351398
0.75376379
0.75387463
0.75391652
0.61679436
0.72393155
0.79463334
0.85623108
0.91381844
0.95872745
0.95967458
0.9631641
0.95883534
0.95965607
0.95648046
0.95553988
0.95252314
0.95013346
0.94655432
0.94269719
0.93793835
0.9323736
0.92583509
0.91815054
0.9092873
0.89908887
0.88760229
0.87485211
0.86109283
0.84670658
0.83227807
0.81842286
0.80568657
0.79445685
0.78498157
0.77726727
0.77108851
0.76618636
0.76266817
0.76062354
0.75964042
0.75933098
0.76114854
0.76223441
0.76213616
0.75750608
0.75431733
0.75292479
0.75255362
0.75302012
0.75350933
0.75376131
0.75387319
0.75391611
0.61768128
0.72550078
0.79672837
0.85872722
0.91670601
0.95947648
0.95837993
0.96189535
0.95748601
0.95827041
0.95504266
0.95402691
0.950941
0.94843843
0.94475948
0.94075096
0.93583903
0.93007425
0.92331676
0.91537379
0.90622558
0.89571839
0.88391604
0.87086893
0.85686869
0.84234403
0.82791876
0.81422604
0.80180106
0.79100544
0.78204559
0.77485141
0.76911162
0.76465206
0.76167817
0.76004892
0.75926105
0.75941529
0.76145833
0.76232058
0.76188241
0.75696962
0.75399792
0.75274523
0.75242068
0.75300815
0.75350593
0.75375973
0.75387215
0.75391572
0.61836478
0.72688525
0.79866033
0.86105677
0.91933932
0.95966395
0.95682303
0.96036641
0.95587962
0.95663729
0.95334754
0.95225108
0.9490959
0.94647381
0.94268945
0.93852085
0.93344626
0.92747053
0.9204803
0.91226594
0.90281991
0.89199379
0.87986944
0.86652702
0.85229903
0.83766327
0.82328113
0.80979863
0.79773724
0.78742914
0.7790246
0.77235631
0.76705955
0.76313884
0.76072005
0.75947116
0.75885869
0.75962835
0.76169384
0.76237933
0.76132673
0.75641203
0.75366266
0.75257246
0.75230428
0.75299907
0.75350412
0.75375917
0.75387165
0.75391534
0.61891146
0.72815046
0.8004944
0.86330484
0.92173382
0.95935486
0.95505267
0.95861717
0.95406326
0.95477621
0.95142889
0.95024424
0.94701572
0.94426501
0.94036683
0.93602758
0.93077798
0.92457908
0.91734293
0.90884439
0.89908748
0.88793194
0.87547969
0.86184481
0.84740456
0.83268775
0.81839101
0.80516871
0.79352566
0.78375659
0.77593378
0.76978352
0.76497411
0.76167139
0.75979462
0.75889186
0.75851676
0.75982467
0.76186887
0.76244996
0.76064057
0.75582214
0.75329917
0.75238992
0.75221321
0.75299352
0.75350412
0.75375962
0.75387151
0.75391497
0.61933354
0.72931077
0.80225649
0.86550364
0.92384595
0.95857576
0.95309719
0.95667731
0.95205431
0.95271726
0.9493079
0.9480246
0.94471661
0.94182645
0.93780477
0.93328391
0.92784743
0.92141361
0.91391755
0.90512157
0.89504051
0.88354521
0.87076005
0.85683755
0.8422038
0.82743961
0.81327391
0.8003654
0.78919785
0.78001291
0.77278135
0.76714359
0.76291263
0.76026279
0.75889292
0.7583043
0.75828062
0.76003519
0.76199305
0.76244693
0.75986699
0.75521418
0.75291747
0.75219408
0.7521492
0.75299117
0.75350598
0.75376098
0.75387167
0.7539146
0.61971749
0.73042434
0.8039884
0.86770846
0.92566293
0.95736155
0.95097662
0.95455587
0.9498644
0.95046435
0.94699084
0.94559799
0.94220477
0.93916518
0.93501128
0.93029894
0.92466394
0.91798348
0.91021376
0.90110706
0.89068853
0.87884336
0.86572138
0.85151858
0.83671377
0.82194002
0.80795532
0.79541867
0.78478372
0.77621562
0.76957105
0.76447288
0.76091783
0.75891685
0.75799275
0.75770343
0.75804902
0.7602134
0.76206145
0.76237149
0.75908872
0.75462164
0.75252746
0.75195647
0.7521035
0.75299181
0.75350975
0.75376314
0.75387207
0.75391426
0.62003164
0.73144873
0.80565071
0.8699166
0.92712122
0.95567922
0.94867983
0.95224612
0.94748796
0.94801621
0.94447731
0.94296566
0.93948309
0.93628593
0.93199232
0.92707947
0.9212347
0.91429619
0.9062388
0.89680792
0.88603864
0.87383416
0.86037317
0.84590063
0.83095147
0.816211
0.80246269
0.79036018
0.78031006
0.77237517
0.76631287
0.76183349
0.75901292
0.75761714
0.75708447
0.75710164
0.75785181
0.76035088
0.76206141
0.76226367
0.75831423
0.75406345
0.75215144
0.75168112
0.75207767
0.75299589
0.75351542
0.75376599
0.75387274
0.75391406
0.62025963
0.73237441
0.80723193
0.87215034
0.92817039
0.95352752
0.9462098
0.94975017
0.94492536
0.94537263
0.94176823
0.94013045
0.93655581
0.93319435
0.92875339
0.92363149
0.91756481
0.91035601
0.90199632
0.89222716
0.88109373
0.8685211
0.85472122
0.83999333
0.82493178
0.81027353
0.79682357
0.78521938
0.77579509
0.76849645
0.76303715
0.75928118
0.75720125
0.75633493
0.75618954
0.75650887
0.75773658
0.76044763
0.76199456
0.76212
0.75753278
0.75353652
0.75180201
0.7514082
0.75206238
0.75300471
0.75352286
0.75376943
0.75387367
0.75391405
0.62040181
0.73319295
0.80872168
0.87442456
0.92876513
0.95097489
0.94355718
0.94706259
0.94217603
0.94253616
0.93886908
0.93709893
0.93342958
0.92989606
0.92529955
0.9199584
0.91365744
0.90616594
0.89748909
0.88736731
0.8758565
0.86290819
0.8487724
0.83380814
0.8186721
0.804152
0.79106845
0.7800235
0.77124978
0.76459001
0.75980487
0.7568469
0.75545986
0.75506772
0.75533315
0.75595244
0.75772733
0.76051593
0.76186507
0.76188116
0.75673083
0.75303212
0.75148285
0.7511628
0.75206354
0.75301863
0.75353175
0.75377332
0.75387481
0.75391415
0.62045282
0.73390686
0.81010638
0.87673625
0.92886788
0.94840556
0.94073136
0.94419663
0.93925353
0.93951948
0.93579003
0.93387921
0.93010975
0.92639558
0.92163295
0.91606308
0.90951385
0.90172592
0.89271576
0.88222597
0.87032453
0.85699447
0.84252936
0.82735334
0.81218823
0.79787074
0.78522574
0.77479113
0.76667885
0.7606853
0.75667953
0.75453417
0.75375125
0.7538424
0.75452709
0.75550353
0.75782646
0.76056052
0.7616516
0.76144978
0.75590581
0.7525369
0.75119477
0.75097748
0.75208154
0.75303638
0.75354174
0.75377756
0.7538761
0.75391433
0.62046617
0.73456333
0.81141404
0.87911074
0.92850392
0.94567652
0.93775522
0.94116895
0.93617004
0.93633016
0.93253605
0.93047409
0.92659839
0.92269387
0.91775515
0.91194469
0.90513363
0.89703529
0.88767518
0.87680179
0.86449732
0.85078188
0.83599827
0.82064139
0.80550102
0.79145868
0.77932317
0.76953392
0.76209422
0.75684344
0.75369668
0.75231794
0.75207595
0.75267653
0.75377157
0.75518923
0.75797986
0.76056968
0.76140801
0.76069407
0.75506872
0.75203576
0.75093501
0.75084157
0.75210878
0.75305671
0.75355253
0.75378206
0.75387748
0.75391455
0.62043717
0.73516046
0.81262832
0.88152022
0.92762959
0.9426634
0.93462727
0.93797707
0.93292293
0.93296636
0.9291059
0.92688354
0.92289502
0.91879162
0.91366469
0.9076037
0.90051469
0.89208968
0.88236124
0.87108794
0.85836903
0.84426748
0.8291815
0.8136827
0.7986309
0.78494278
0.77338004
0.76425626
0.75752909
0.75312911
0.75086097
0.75015647
0.75046837
0.75157292
0.7530538
0.75495816
0.75813937
0.76052969
0.76118958
0.75961844
0.75422779
0.75153863
0.75069873
0.75075582
0.75214162
0.75307892
0.75356397
0.75378673
0.7538789
0.75391481
0.62033248
0.73568564
0.81374346
0.88391719
0.92621621
0.93947441
0.93133808
0.93461555
0.92950974
0.92942729
0.92549988
0.92310789
0.91899992
0.91468801
0.90936142
0.90303602
0.89565275
0.88688418
0.87676891
0.86508014
0.85193743
0.83745272
0.82208671
0.80649404
0.79160454
0.77835139
0.76740977
0.75897069
0.75304771
0.74957976
0.74814624
0.74805241
0.74894933
0.75053401
0.7523625
0.75477541
0.7582732
0.76044389
0.76096129
0.75851159
0.75340261
0.75103876
0.75042953
0.75070959
0.75217833
0.75310276
0.75357594
0.7537915
0.75388035
0.75391507
0.62014286
0.73613326
0.8147873
0.88627232
0.92428829
0.93614062
0.92789431
0.93108986
0.92593502
0.92571539
0.92171903
0.91914742
0.91491225
0.91038186
0.90484122
0.89823815
0.89054103
0.88140976
0.87088828
0.85876884
0.84519509
0.83033466
0.81471889
0.79909159
0.7844474
0.77170599
0.76141789
0.75371379
0.74871436
0.74620156
0.74551031
0.74604178
0.74752383
0.74956236
0.7517082
0.75466698
0.75835894
0.76033022
0.76071339
0.75737951
0.75262619
0.75052666
0.75010955
0.75068711
0.7522182
0.75312828
0.75358834
0.75379629
0.75388178
0.75391535
0.61987443
0.73653119
0.8157865
0.88850736
0.92194891
0.93262385
0.92430069
0.92740254
0.92219857
0.92183038
0.91776218
0.91500166
0.9106294
0.90586953
0.90009869
0.89320103
0.88517072
0.87565801
0.86471193
0.85214827
0.8381393
0.82291618
0.80709028
0.79149918
0.77718865
0.76502397
0.75541682
0.74855365
0.74456916
0.74296743
0.74295859
0.74414453
0.74619401
0.74866
0.75114007
0.75465503
0.75838105
0.76019481
0.76041981
0.75627824
0.75190966
0.75005918
0.7497716
0.75069935
0.75226321
0.75315559
0.753601
0.75380104
0.75388319
0.75391563
0.61952593
0.73688098
0.81678191
0.89053815
0.91916949
0.92893993
0.9205498
0.92354667
0.918298
0.91777035
0.91362809
0.91066699
0.90614646
0.90114331
0.89512457
0.88791582
0.87953114
0.86961719
0.8582281
0.84520785
0.83076299
0.81519743
0.79921274
0.78374055
0.76985221
0.75831368
0.74944186
0.74355684
0.74062171
0.7398369
0.7405268
0.74236681
0.74495867
0.74782231
0.75072576
0.75470878
0.75833421
0.75994642
0.76004919
0.75521659
0.7512533
0.74964937
0.74950132
0.75075732
0.75231545
0.75318422
0.75361367
0.7538057
0.75388457
0.75391592
0.61904273
0.73715464
0.81778
0.89231454
0.91599518
0.92508535
0.91664395
0.91952588
0.91423494
0.91353434
0.90931145
0.90613676
0.90145343
0.89619347
0.889908
0.88237041
0.87361147
0.86327747
0.85142828
0.83794136
0.82306467
0.80718585
0.79110649
0.77584503
0.76246038
0.75158635
0.74356196
0.73876975
0.73684526
0.73681696
0.73823394
0.74071474
0.74381812
0.74703938
0.7504559
0.75481103
0.75823798
0.75960899
0.75954475
0.75419181
0.75065625
0.7493129
0.74928116
0.75084071
0.7523722
0.7532133
0.75362618
0.75381024
0.7538859
0.7539162
0.61842429
0.73735922
0.81881113
0.89379437
0.91248849
0.9210797
0.91258877
0.9153385
0.91000244
0.90911192
0.90480072
0.90139885
0.89653918
0.89100847
0.88443841
0.87655493
0.86740012
0.8566261
0.84429994
0.83033845
0.81504003
0.79888831
0.78279218
0.76783827
0.75502733
0.74487011
0.73785006
0.73421042
0.73319799
0.7339432
0.73608618
0.73919005
0.74277314
0.74631428
0.75026502
0.75492828
0.75809888
0.7592125
0.7587858
0.75321448
0.750114
0.74904497
0.74913298
0.75093553
0.75243056
0.75324224
0.75363842
0.75381463
0.7538872
0.75391648
0.61772424
0.73752337
0.81988586
0.89491821
0.90866857
0.91690175
0.90836318
0.91096318
0.90558277
0.90448869
0.90008324
0.89644341
0.8913931
0.88557906
0.87870513
0.87045715
0.8608857
0.84965233
0.83683396
0.82239367
0.80669145
0.79032018
0.77429742
0.75974618
0.74756633
0.73823086
0.73236242
0.72985728
0.72968511
0.73123537
0.73408988
0.73779197
0.74182187
0.74569217
0.75016849
0.7550225
0.75790754
0.75876227
0.75768036
0.75228389
0.74960969
0.74882312
0.74905906
0.75103517
0.75248905
0.75327076
0.75365036
0.75381888
0.75388844
0.75391676
0.61687625
0.73757086
0.82095196
0.89558606
0.90453801
0.91253259
0.90395103
0.90638993
0.90096785
0.89965795
0.89515168
0.89126218
0.88600673
0.87989517
0.87269823
0.86406657
0.85405521
0.84234207
0.82901736
0.81409854
0.79802066
0.78149818
0.76564862
0.75158817
0.74009661
0.73175179
0.72712964
0.72566415
0.7263433
0.72869937
0.73224808
0.73651625
0.74095296
0.74524667
0.75020307
0.75507023
0.7576627
0.75827588
0.75643562
0.75138266
0.7490741
0.74858969
0.74903145
0.75113644
0.75254707
0.75329879
0.75366196
0.75382297
0.75388964
0.75391704
0.61597116
0.73757241
0.82204035
0.89572001
0.90014989
0.90798123
0.89935869
0.9016193
0.89615604
0.89461523
0.88999934
0.88584868
0.88037192
0.87394848
0.86640647
0.85736906
0.84689513
0.83468294
0.82084059
0.80545019
0.7890374
0.77244728
0.75687484
0.74338282
0.73267296
0.72550214
0.72214339
0.72162786
0.72319477
0.72634149
0.73056299
0.73536025
0.74015193
0.7449669
0.75034723
0.75507266
0.75737982
0.75779265
0.75512681
0.75051731
0.74853945
0.74830329
0.74903511
0.75123761
0.75260464
0.7533263
0.75367319
0.75382689
0.7538908
0.75391731
0.61500297
0.73750739
0.82308861
0.89511002
0.89554403
0.90324145
0.89457897
0.89664493
0.89113998
0.88935461
0.88461959
0.88019651
0.87448073
0.86772827
0.85981704
0.85035089
0.83938972
0.82665933
0.81229138
0.79644498
0.77975325
0.76319303
0.7480007
0.7351481
0.72537982
0.7195256
0.71735963
0.71778363
0.72024651
0.72416396
0.72903257
0.73432242
0.73943239
0.74477391
0.75056011
0.75502436
0.75703536
0.7572925
0.75384896
0.74970975
0.74805197
0.74799822
0.74910387
0.75134032
0.75266221
0.75335326
0.75368402
0.75383064
0.7538919
0.75391758
0.61406675
0.73747506
0.82409217
0.89388146
0.89068829
0.8983077
0.88960868
0.89146006
0.88591497
0.8838716
0.87900755
0.87429854
0.86832345
0.86122148
0.85291489
0.84299446
0.83152299
0.81825759
0.80336171
0.78708638
0.77018826
0.75376495
0.7390504
0.72692258
0.71830109
0.71383659
0.71276128
0.71415903
0.71750445
0.72216864
0.72765209
0.73339829
0.73886961
0.74467167
0.75080037
0.75493471
0.7566311
0.75677664
0.75263353
0.74898653
0.74762896
0.74772282
0.74924561
0.75144811
0.75271976
0.75337942
0.75369437
0.75383422
0.75389297
0.75391785
0.61312045
0.73745012
0.8249088
0.89195412
0.88560429
0.89316972
0.8844425
0.88606523
0.88047808
0.87816331
0.87315521
0.86814426
0.86188498
0.85441147
0.84568136
0.83528207
0.82327684
0.80946194
0.79404282
0.77738028
0.76036517
0.7441903
0.73004411
0.71878012
0.71150165
0.70840457
0.70837187
0.7107664
0.71497068
0.72035466
0.72641455
0.73257263
0.73850718
0.74470917
0.75102542
0.75482307
0.75622182
0.75617608
0.75152038
0.74836991
0.74729591
0.74750189
0.74941827
0.75155885
0.75277618
0.75340454
0.75370422
0.75383761
0.75389399
0.75391812
0.61216559
0.73746633
0.82556972
0.88934843
0.88033024
0.88784068
0.87908679
0.88045974
0.87482349
0.87221878
0.86704807
0.86171595
0.85514619
0.84727707
0.83809628
0.8271929
0.81463389
0.80025959
0.78433201
0.76734082
0.75031309
0.73449795
0.72100921
0.71081782
0.70502103
0.70319363
0.70422909
0.7076112
0.71264705
0.71872062
0.72531534
0.73183207
0.73828215
0.74490259
0.75120472
0.75466943
0.75579717
0.75537042
0.75053034
0.74785663
0.74705838
0.74738243
0.74960076
0.75166823
0.75283058
0.75342847
0.75371356
0.75384084
0.75389497
0.75391839
0.61129791
0.73757266
0.82603641
0.88602344
0.8748589
0.88229996
0.87352462
0.87462535
0.86893303
0.86601835
0.86066409
0.85499155
0.84808449
0.83979704
0.83013857
0.81870825
0.80557603
0.79063734
0.77422887
0.75698605
0.74006096
0.72471531
0.71200217
0.70312141
0.69885255
0.69820965
0.70035316
0.70469579
0.7105324
0.71726151
0.72434977
0.73120423
0.7381344
0.74522202
0.75133477
0.75445757
0.75534138
0.75429224
0.74965204
0.74740022
0.74688349
0.74733263
0.74978409
0.7517739
0.75288252
0.75345121
0.75372244
0.75384392
0.75389592
0.75391867
0.61049053
0.73780605
0.82619268
0.88193734
0.86918515
0.87653248
0.86773659
0.86854152
0.86278331
0.8595385
0.85397929
0.84794877
0.84067908
0.83195053
0.82178836
0.80980715
0.79608616
0.78058627
0.76374052
0.74634119
0.72963909
0.71487073
0.7031183
0.69575595
0.69295494
0.69349596
0.69674984
0.70202138
0.70862501
0.71597027
0.72350812
0.73076313
0.73808153
0.74562551
0.751415
0.75419262
0.75482756
0.75313548
0.74883753
0.74694125
0.74672205
0.74732355
0.74996375
0.75187481
0.75293193
0.75347282
0.75373087
0.75384685
0.75389684
0.75391894
0.60965983
0.73816544
0.82593575
0.87705612
0.86329496
0.87051253
0.86169815
0.86218023
0.85634775
0.85275604
0.84697284
0.84056842
0.83291072
0.82371711
0.81302393
0.80046955
0.78614677
0.77009934
0.75287863
0.7354341
0.71907721
0.70500088
0.69446384
0.68874878
0.68731232
0.68908218
0.69342249
0.69958597
0.70691972
0.71483707
0.72277415
0.73050645
0.73816991
0.7460574
0.75142599
0.75388149
0.75426626
0.75191778
0.74806469
0.74651437
0.74653207
0.74735348
0.75013731
0.75197093
0.75297904
0.75349338
0.75373888
0.75384965
0.75389773
0.75391921
0.60877234
0.7386624
0.82515588
0.8714759
0.85715615
0.86420367
0.8553825
0.85551849
0.84960688
0.84565641
0.83962922
0.8328341
0.82475945
0.8150746
0.80382265
0.79067278
0.77574241
0.75917586
0.74166279
0.72429604
0.70840859
0.69518274
0.68612945
0.68207675
0.68195661
0.68498215
0.69037181
0.69738657
0.70540916
0.71385097
0.72215269
0.73035092
0.73842182
0.7464612
0.75136147
0.75344497
0.75371554
0.75071991
0.74734375
0.74610492
0.74628968
0.74746363
0.75030377
0.75206326
0.75302418
0.75351296
0.75374648
0.75385232
0.7538986
0.75391949
0.60777082
0.73928555
0.82373312
0.86566053
0.85074833
0.85758911
0.84877899
0.84855079
0.84255354
0.8382295
0.83193396
0.82472557
0.81620265
0.80599747
0.79415906
0.78039524
0.76485967
0.74782034
0.73011769
0.71295936
0.69767059
0.68552986
0.67817542
0.67570111
0.67693246
0.68120001
0.68759538
0.69541715
0.70408208
0.71299673
0.72170074
0.73029042
0.73884069
0.74680623
0.75126665
0.75297909
0.75308225
0.74958232
0.74670281
0.74573691
0.74605182
0.7476663
0.75046822
0.75215334
0.75306749
0.75353154
0.75375367
0.75385486
0.75389946
0.75391978
0.60661435
0.7400646
0.82160803
0.85975097
0.84409555
0.85068301
0.84189297
0.84127643
0.83517757
0.83045942
0.82386426
0.81621745
0.80721183
0.79645783
0.78400711
0.76961494
0.75348995
0.73604525
0.71827328
0.70146013
0.68691925
0.676157
0.67061454
0.66962876
0.67226685
0.67773726
0.68508904
0.6936704
0.70292748
0.71226117
0.72142983
0.73035061
0.73938801
0.74708702
0.75111743
0.75249983
0.75237703
0.74854913
0.74614984
0.74544394
0.74587105
0.74791251
0.75063468
0.75224085
0.7531087
0.75354906
0.75376045
0.75385729
0.75390029
0.75392007
0.60523941
0.7409883
0.81873683
0.85318286
0.8372003
0.84348178
0.83471011
0.83367466
0.82745331
0.82231803
0.81539045
0.80727827
0.79775705
0.7864256
0.77333942
0.75831241
0.7416299
0.72386925
0.70616203
0.68983827
0.67625291
0.66716122
0.66341073
0.66391155
0.66796564
0.6745914
0.68284561
0.6921353
0.70193351
0.71165679
0.72126772
0.73053742
0.74001933
0.74730378
0.75090512
0.75201206
0.75151889
0.74765539
0.74566234
0.74524255
0.74578164
0.74817401
0.75079777
0.75232446
0.75314755
0.75356551
0.75376684
0.75385961
0.75390112
0.75392037
0.60372662
0.74202137
0.81507018
0.84628475
0.83002544
0.83594956
0.82719568
0.82571188
0.81934688
0.81377332
0.80647949
0.79787582
0.7878056
0.77586998
0.76212914
0.74647092
0.72928362
0.71131864
0.69382035
0.67814182
0.66579956
0.65859762
0.65654443
0.65858984
0.66403289
0.67175748
0.68085649
0.69079947
0.70108644
0.7112353
0.72119457
0.73086691
0.74067845
0.74745536
0.75064581
0.75149959
0.75046591
0.74688746
0.74523963
0.74511611
0.74575337
0.74843546
0.75095365
0.75240327
0.75318393
0.75358092
0.75377288
0.75386183
0.75390194
0.75392068
0.60203798
0.74305963
0.8105452
0.83895405
0.82253324
0.82805033
0.81931581
0.8173568
0.81082569
0.80479268
0.79709822
0.78797609
0.77732532
0.76475942
0.75035019
0.73407915
0.71646277
0.69842531
0.68129194
0.66644891
0.65568374
0.65046363
0.65004768
0.65368426
0.66046679
0.66922687
0.67910971
0.68964921
0.70037345
0.71098982
0.72123415
0.731364
0.74130267
0.74753468
0.75034573
0.75095702
0.74944774
0.74619768
0.74488189
0.74498497
0.74576003
0.74869065
0.75110031
0.75247694
0.75321792
0.75359539
0.7537786
0.75386398
0.75390276
0.753921
0.60023566
0.74401738
0.80517325
0.83121549
0.81470268
0.81975827
0.81104173
0.8085794
0.80185706
0.79534354
0.78721255
0.77754521
0.76628177
0.75306168
0.73797873
0.72113192
0.70318717
0.68522549
0.66862824
0.65488452
0.6460077
0.64271757
0.64397942
0.64920075
0.65726247
0.66698902
0.67759121
0.68867054
0.69980689
0.7108466
0.72140819
0.73203085
0.741853
0.74753498
0.75001345
0.75039835
0.74841955
0.74557427
0.74454944
0.74482869
0.7457982
0.74893517
0.75123677
0.75254555
0.75324969
0.753609
0.75378402
0.75386604
0.75390357
0.75392133
0.59830083
0.74469967
0.79898504
0.82301285
0.80649961
0.81104094
0.80234184
0.79934766
0.79240722
0.78539208
0.77678756
0.76654605
0.75463874
0.74074327
0.72499369
0.70763178
0.6894845
0.67176196
0.65589444
0.64359794
0.63681301
0.63536259
0.63837857
0.64514014
0.65441073
0.66503088
0.67628462
0.68784534
0.69941928
0.71078373
0.72171582
0.73282874
0.74233519
0.74747129
0.74958556
0.74983281
0.74743805
0.74502287
0.74423305
0.74464784
0.74590637
0.74916532
0.75136325
0.75260961
0.75327954
0.75362186
0.75378919
0.75386804
0.75390438
0.75392167
0.59637767
0.74504737
0.79204453
0.81435514
0.79789445
0.80186629
0.79318683
0.78963157
0.78244142
0.77490344
0.76578499
0.75493826
0.74235595
0.72777041
0.7113793
0.69359028
0.6753896
0.65808842
0.64319785
0.63272396
0.62807788
0.62846185
0.63325673
0.64149805
0.65189979
0.66333796
0.67517493
0.6871614
0.69919038
0.71081693
0.72215455
0.7337108
0.74275389
0.74737631
0.7491181
0.74924458
0.74653272
0.7445186
0.74394685
0.74447056
0.74610386
0.74937948
0.75148172
0.75267004
0.75330775
0.75363403
0.75379412
0.75386999
0.7539052
0.75392202
0.59411524
0.74501839
0.78439312
0.80521679
0.78885443
0.79220505
0.78354285
0.77940042
0.77192272
0.76383724
0.75416106
0.74267513
0.72938985
0.7141107
0.69712734
0.67902854
0.66094476
0.64427299
0.63069301
0.62235589
0.61978225
0.62207107
0.62861902
0.63826555
0.64971505
0.66189208
0.67424532
0.68663608
0.69905872
0.71095753
0.72272975
0.7346268
0.7431
0.74722607
0.74864824
0.74854694
0.74572388
0.74404815
0.74372414
0.74434385
0.74636294
0.74958497
0.7515953
0.75272754
0.75333445
0.75364553
0.75379882
0.75387188
0.75390602
0.75392239
0.59146906
0.74456637
0.7760737
0.79558337
0.77935893
0.78202862
0.77337696
0.76861787
0.76080646
0.75214405
0.74186354
0.72970399
0.71569484
0.69973695
0.68224011
0.66397865
0.64620419
0.63040847
0.61854615
0.61251754
0.61196175
0.61622257
0.6244629
0.6354304
0.64784018
0.66067207
0.67347487
0.68628899
0.69900589
0.71121783
0.72346307
0.73551258
0.74336821
0.74702122
0.74817178
0.74778042
0.74501815
0.74365553
0.74358129
0.74429595
0.74664741
0.74978761
0.75170473
0.75278213
0.75335961
0.75365637
0.75380328
0.75387371
0.75390683
0.75392278
0.588308
0.74363733
0.76710425
0.78541816
0.76937111
0.77129735
0.76264015
0.75723442
0.74903433
0.73976218
0.7288314
0.71596753
0.70122723
0.68463046
0.66673192
0.64848251
0.63124039
0.61664474
0.60690359
0.60317789
0.60469446
0.61092523
0.62078135
0.63297767
0.64625482
0.65965368
0.67284782
0.68608262
0.69904346
0.71160899
0.72436649
0.73631584
0.74355899
0.74677802
0.74767957
0.74695954
0.74440694
0.74332946
0.74347177
0.74429128
0.74694089
0.74998422
0.75180914
0.7528336
0.75338321
0.75366655
0.75380752
0.7538755
0.75390765
0.75392318
0.58452
0.74188475
0.75748182
0.77468276
0.75884768
0.75995579
0.75126717
0.74518388
0.73653479
0.72661968
0.71499805
0.70140801
0.68594873
0.66878418
0.65062981
0.63259573
0.61614732
0.60317022
0.59583425
0.59435024
0.59803288
0.60618093
0.61756234
0.63088877
0.64493234
0.65881321
0.67238544
0.68596772
0.69917512
0.71213331
0.72540745
0.73702745
0.74367027
0.74650301
0.74717611
0.74613607
0.7438779
0.74305614
0.74337289
0.74430814
0.7472372
0.75017222
0.75190772
0.75288175
0.75340522
0.75367609
0.75381155
0.75387724
0.75390844
0.75392359
0.5800728
0.73934823
0.74715243
0.76329723
0.74771465
0.74792608
0.73917104
0.73238699
0.72322813
0.71264046
0.70029586
0.68597169
0.66983094
0.65220491
0.63397515
0.61639362
0.6010653
0.59016592
0.5853366
0.5861181
0.59199701
0.60198452
0.61478902
0.62913759
0.64383946
0.65813494
0.67209582
0.68592648
0.69939838
0.71278197
0.7265391
0.73766138
0.74370139
0.74619906
0.74667311
0.74535117
0.74342127
0.74280346
0.74324933
0.74434772
0.74753272
0.75034948
0.75199981
0.75292647
0.75342567
0.75368502
0.75381539
0.75387895
0.75390922
0.75392406
0.57496808
0.73601985
0.73607209
0.75115617
0.73587956
0.73512786
0.72626016
0.71875854
0.70903521
0.69774789
0.68466046
0.66961189
0.65285779
0.63491452
0.61682414
0.59997783
0.58618976
0.57776072
0.5754112
0.57855459
0.58659515
0.59832419
0.61243735
0.62768721
0.64294514
0.65762894
0.67192866
0.68596154
0.69971218
0.71354827
0.72772277
0.73822351
0.74366295
0.74586142
0.74617727
0.74461741
0.74297047
0.74255532
0.74311158
0.74443107
0.74781853
0.75051386
0.75208482
0.75296771
0.75344462
0.75369339
0.75381906
0.75388064
0.75391001
0.75392456
0.56921499
0.73162558
0.72422104
0.73815695
0.72323922
0.72148168
0.71244251
0.70421418
0.69387731
0.68186864
0.66803033
0.65229034
0.63502703
0.61695101
0.59925485
0.58348604
0.57174121
0.56599891
0.56612559
0.57170299
0.58182542
0.59518077
0.61047446
0.62649594
0.64224084
0.65730495
0.67184047
0.68606985
0.70012291
0.71444513
0.72890291
0.73871458
0.74357817
0.7454647
0.74568294
0.74393747
0.7425612
0.74231417
0.74296757
0.74457078
0.74808815
0.75066403
0.7521627
0.75300571
0.75346226
0.75370129
0.7538226
0.75388233
0.75391083
0.75392511
0.5628668
0.72570364
0.71160203
0.72423275
0.70969193
0.70690563
0.69763067
0.68866952
0.67767813
0.66492965
0.65034717
0.63397791
0.61635151
0.59837083
0.58137703
0.56712461
0.55790796
0.55487546
0.55758159
0.56557802
0.57767612
0.59252504
0.60885975
0.62554032
0.6417529
0.65712391
0.67181718
0.68624982
0.70064667
0.71550551
0.73000209
0.73912422
0.74345811
0.74504363
0.7451594
0.74331776
0.74220386