/*--------------------------------*- C++ -*----------------------------------*\
  =========                 |
  \\      /  F ield         | OpenFOAM: The Open Source CFD Toolbox
   \\    /   O peration     | Website:  https://openfoam.org
    \\  /    A nd           | Version:  8
     \\/     M anipulation  |
\*---------------------------------------------------------------------------*/
FoamFile
{
    version     2.0;
    format      ascii;
    class       surfaceScalarField;
    location    "0.0300106";
    object      meshPhi;
}
// * * * * * * * * * * * * * * * * * * * * * * * * * * * * * * * * * * * * * //

dimensions      [0 3 -1 0 0 0 0];

internalField   nonuniform List<scalar> 
39600
(
2.1213126e-05
1.4022874e-06
-1.4603999e-06
2.1269997e-05
1.6726405e-06
-1.7124969e-06
2.1339329e-05
2.0045204e-06
-2.0516828e-06
2.1421865e-05
2.4016477e-06
-2.4583536e-06
2.1514054e-05
2.8773507e-06
-2.945584e-06
2.1618421e-05
3.4472037e-06
-3.5292896e-06
2.1732685e-05
4.129736e-06
-4.2284461e-06
2.1861904e-05
4.947042e-06
-5.0657043e-06
2.2011285e-05
5.9255234e-06
-6.068085e-06
2.2188453e-05
7.0965562e-06
-7.2677289e-06
2.2403951e-05
8.4973518e-06
-8.7028639e-06
2.2668192e-05
1.0171898e-05
-1.0418746e-05
2.300346e-05
1.2172169e-05
-1.2468907e-05
2.3427955e-05
1.4559215e-05
-1.4916426e-05
2.3971456e-05
1.7404633e-05
-1.7835293e-05
2.4673251e-05
2.0791651e-05
-2.1312206e-05
2.5636786e-05
2.4815895e-05
-2.544761e-05
2.7004697e-05
2.958452e-05
-3.0353369e-05
2.8900914e-05
3.5212221e-05
-3.6152058e-05
3.1506888e-05
4.1814682e-05
-4.2970528e-05
3.5106496e-05
4.948623e-05
-5.0918313e-05
3.9968898e-05
5.8303329e-05
-6.0095234e-05
4.6161086e-05
6.8293907e-05
-7.0547022e-05
5.3244143e-05
7.9495386e-05
-8.232351e-05
6.197358e-05
9.187998e-05
-9.5420622e-05
7.0840175e-05
0.00010564315
-0.00011008602
8.2074958e-05
0.0001208188
-0.00012637922
9.8500312e-05
0.00013666142
-0.00014370281
0.00012042514
0.00015225699
-0.00016135607
0.00014542919
0.00016788284
-0.00017968193
0.00017455763
0.00018381331
-0.0001989486
0.00020982564
0.00019690011
-0.00021603088
0.00024765746
0.00020619228
-0.00022996247
0.0002798543
0.00021626569
-0.000245268
0.00030980004
0.00022890805
-0.00026339549
0.00035503248
0.00023424936
-0.00027471044
0.00040195973
0.0002281361
-0.00027548265
0.00045266627
0.0002139246
-0.00026869147
0.00049934554
0.00018783538
-0.00024984833
0.0005461194
0.00015237237
-0.0002212835
0.00058748351
0.00011049161
-0.00018597758
0.00060729513
3.9801358e-05
-0.00011920691
0.00060832975
-7.9187383e-05
-6.6793456e-08
0.00059655245
-0.00023216249
0.00015626632
0.00054022136
-0.00043205311
0.00036468705
0.00041494523
-0.00071315664
0.00066781614
0.00038351867
-0.001005292
0.0009788753
0.00032482838
-0.0012564412
0.0012331268
0.00019672675
-0.0015684098
0.0015593995
-0.00096451596
0.00096875419
1.7006664e-05
1.3753813e-06
1.7028839e-05
1.6403006e-06
1.70505e-05
1.9651826e-06
1.7075981e-05
2.3543904e-06
1.7110223e-05
2.8206555e-06
1.7158036e-05
3.3791018e-06
1.7225959e-05
4.0479643e-06
1.7318226e-05
4.8488185e-06
1.7442926e-05
5.8075159e-06
1.7605042e-05
6.9546623e-06
1.7813281e-05
8.3266345e-06
1.8075412e-05
9.9664018e-06
1.8404119e-05
1.1924744e-05
1.8812889e-05
1.4261106e-05
1.9313107e-05
1.7045279e-05
1.9951653e-05
2.0357235e-05
2.0832326e-05
2.4287593e-05
2.2084349e-05
2.893767e-05
2.3830961e-05
3.4417021e-05
2.6235241e-05
4.0832185e-05
2.9559923e-05
4.8265013e-05
3.405835e-05
5.6771805e-05
3.9804171e-05
6.6364909e-05
4.6462531e-05
7.7066959e-05
5.4738583e-05
8.8821741e-05
6.3522229e-05
0.00010175429
7.4718552e-05
0.0001158563
9.1220022e-05
0.00013025257
0.00011316541
0.00014381915
0.0001381092
0.00015682158
0.00016720871
0.00016943689
0.00020221803
0.00017855974
0.00023975969
0.00018333109
0.00027274785
0.00018829095
0.00030403887
0.00019513073
0.00034937427
0.0001940756
0.00039682004
0.00018102891
0.00044812593
0.00015934793
0.00049624031
0.00012582512
0.00054412463
8.3198919e-05
0.00058717278
3.4354183e-05
0.00060800074
-4.0843705e-05
0.00061057439
-0.00015989647
0.00060106831
-0.00030891151
0.00054757335
-0.00050018064
0.00043322148
-0.00076029643
0.0003992835
-0.0010317034
0.00033215201
-0.0012787309
0.0002038875
-0.0015748708
-0.00095745972
1.3079856e-05
1.3534154e-06
1.3044e-05
1.6139122e-06
1.300756e-05
1.9334927e-06
1.2985509e-05
2.3163505e-06
1.2983808e-05
2.7749968e-06
1.3004244e-05
3.3243295e-06
1.3049983e-05
3.9822207e-06
1.3123957e-05
4.7698957e-06
1.3232381e-05
5.7126959e-06
1.3378385e-05
6.8407152e-06
1.3571587e-05
8.1896079e-06
1.3815959e-05
9.8016572e-06
1.4122736e-05
1.172651e-05
1.4494556e-05
1.402256e-05
1.4941326e-05
1.6758141e-05
1.5515826e-05
2.0009935e-05
1.6305267e-05
2.3864421e-05
1.7426179e-05
2.8418419e-05
1.8991503e-05
3.3776755e-05
2.1153237e-05
4.0038943e-05
2.4155069e-05
4.7276072e-05
2.8230357e-05
5.5527883e-05
3.3472334e-05
6.4790177e-05
3.9674928e-05
7.5068179e-05
4.747732e-05
8.6268459e-05
5.6141907e-05
9.844459e-05
6.7285121e-05
0.00011154494
8.3785867e-05
0.00012454083
0.00010566035
0.0001361322
0.0001304743
0.0001465878
0.00015954581
0.00015596665
0.00019421946
0.00016120676
0.00023147113
0.00016151471
0.00026508234
0.00016134551
0.0002979102
0.00016226416
0.00034330449
0.00015469198
0.00039134707
0.00013460511
0.00044334061
0.0001052729
0.000492837
6.400461e-05
0.00054197839
1.3826909e-05
0.00058659457
-4.2342659e-05
0.00060869648
-0.00012238044
0.00061262494
-0.00024186955
0.00060635767
-0.00038774445
0.00055496235
-0.00057116736
0.00045220202
-0.00081263132
0.00041562665
-0.001065482
0.00033987415
-0.0013057435
0.00021154546
-0.0015843312
-0.0009525136
9.4475544e-06
1.3366635e-06
9.4131119e-06
1.5939083e-06
9.3780599e-06
1.9095825e-06
9.3529835e-06
2.2877483e-06
9.3401988e-06
2.7407386e-06
9.3427073e-06
3.2832531e-06
9.3612798e-06
3.9328824e-06
9.4031935e-06
4.7105937e-06
9.4738179e-06
5.6413585e-06
9.5804099e-06
6.754839e-06
9.731489e-06
8.0861923e-06
9.9300842e-06
9.6771235e-06
1.0188573e-05
1.1576446e-05
1.0502007e-05
1.3841873e-05
1.0888174e-05
1.6540267e-05
1.1391676e-05
1.9746031e-05
1.2091787e-05
2.3541905e-05
1.3084316e-05
2.802088e-05
1.4460468e-05
3.3284755e-05
1.6376166e-05
3.9426971e-05
1.9054021e-05
4.650939e-05
2.2714159e-05
5.4558078e-05
2.7476498e-05
6.35522e-05
3.3230384e-05
7.3476974e-05
4.0599146e-05
8.4196656e-05
4.9091689e-05
9.5695656e-05
6.0150215e-05
0.00010786546
7.6609875e-05
0.00011950988
9.8308149e-05
0.00012919839
0.00012294754
0.00013719775
0.00015191019
0.00014343546
0.00018622349
0.00014488901
0.00022319361
0.00014080228
0.00025736431
0.00013549949
0.00029151338
0.00013042645
0.00033699325
0.00011626491
0.00038558565
8.9043735e-05
0.00043824114
5.1896441e-05
0.0004890783
2.5995235e-06
0.00053947183
-5.547617e-05
0.00058564139
-0.00011931382
0.00060918625
-0.00020456716
0.00061466358
-0.00032496859
0.0006113408
-0.00046857236
0.0005623318
-0.00064497667
0.00046984992
-0.00086969531
0.00043044732
-0.0011055284
0.00034772056
-0.0013368529
0.00021891459
-0.0015964798
-0.0009492325
6.0856829e-06
1.3248518e-06
6.0941907e-06
1.5796751e-06
6.0948663e-06
1.8924657e-06
6.0885117e-06
2.2671962e-06
6.0764536e-06
2.7160642e-06
6.0655313e-06
3.2536684e-06
6.0590466e-06
3.8974364e-06
6.0672938e-06
4.668136e-06
6.0954485e-06
5.5904917e-06
6.1539649e-06
6.6939092e-06
6.2495227e-06
8.0131414e-06
6.3880407e-06
9.589469e-06
6.5812703e-06
1.1471156e-05
6.8276975e-06
1.3715185e-05
7.1440084e-06
1.6387554e-05
7.5737102e-06
1.9560621e-05
8.182504e-06
2.3314237e-05
9.0381633e-06
2.7738976e-05
1.0227856e-05
3.2933495e-05
1.1901868e-05
3.8986071e-05
1.4264385e-05
4.5952082e-05
1.7527553e-05
5.3846004e-05
2.1836611e-05
6.2631063e-05
2.7152591e-05
7.2271829e-05
3.4105415e-05
8.2586702e-05
4.236207e-05
9.3491338e-05
5.3307998e-05
0.00010480623
6.9705783e-05
0.00011515608
9.1147916e-05
0.00012301762
0.00011557074
0.00012865838
0.00014435263
0.00013185118
0.0001782819
0.0001296209
0.0002149756
0.00012122684
0.00024964343
0.0001108118
0.00028493609
9.9675448e-05
0.00033051696
7.8843925e-05
0.00037961295
4.4417932e-05
0.00043289438
-6.8144773e-07
0.00048503855
-5.8262716e-05
0.00053668233
-0.00012456753
0.00058438283
-0.00019642591
0.00060953392
-0.00028733618
0.0006167704
-0.0004091793
0.00061609578
-0.00055129208
0.00056971045
-0.00072146964
0.0004863483
-0.00093118884
0.00044412639
-0.00115115
0.00035568425
-0.0013714631
0.00022613915
-0.0016108129
-0.00094736103
2.8821853e-06
1.3178956e-06
2.8817018e-06
1.5713676e-06
2.8732476e-06
1.8825824e-06
2.860739e-06
2.2554157e-06
2.8466013e-06
2.7019871e-06
2.8365067e-06
3.2367946e-06
2.8325189e-06
3.8771685e-06
2.8412505e-06
4.6437394e-06
2.8646686e-06
5.5610938e-06
2.9096861e-06
6.6584737e-06
2.9805829e-06
7.9704187e-06
3.082224e-06
9.5379975e-06
3.2265109e-06
1.1409117e-05
3.4154333e-06
1.3640331e-05
3.6695133e-06
1.6296951e-05
4.0279708e-06
1.9449939e-05
4.5417851e-06
2.317706e-05
5.263873e-06
2.756661e-05
6.2740355e-06
3.271496e-05
7.7147975e-06
3.8706898e-05
9.7769411e-06
4.5592329e-05
1.2666645e-05
5.337556e-05
1.6549296e-05
6.2005772e-05
2.1442484e-05
7.1426093e-05
2.7980427e-05
8.1411834e-05
3.5951235e-05
9.1814104e-05
4.676813e-05
0.00010235335
6.3085256e-05
0.00011146438
8.4219172e-05
0.00011758008
0.00010838932
0.0001209648
0.00013693366
0.0001212214
0.00017046133
0.00011541668
0.00020688264
0.00010280098
0.00024198396
8.7302771e-05
0.00027827643
7.007955e-05
0.00032396268
4.254019e-05
0.00037352036
8.5045909e-07
0.00042739331
-5.2316039e-05
0.0004808074
-0.00011841052
0.00053369462
-0.00019325875
0.00058289954
-0.00027347224
0.00060978898
-0.00037047772
0.00061895419
-0.00049436332
0.00062070831
-0.00063574533
0.00057710403
-0.00080046842
0.00050182722
-0.00099671441
0.00045693538
-0.0012016796
0.00036378865
-0.0014093131
0.00023334779
-0.0016273226
-0.00094671775
-1.133865e-07
1.3155438e-06
-1.1579663e-07
1.568432e-06
-1.2400863e-07
1.8789858e-06
-1.3441609e-07
2.251016e-06
-1.4437884e-07
2.6966423e-06
-1.5014529e-07
3.2303352e-06
-1.5140325e-07
3.8694019e-06
-1.4407721e-07
4.6344493e-06
-1.285444e-07
5.550039e-06
-9.9713305e-08
6.6453796e-06
-5.4777411e-08
7.9549301e-06
1.0869904e-08
9.5196765e-06
1.0884722e-07
1.1387355e-05
2.433763e-07
1.3614248e-05
4.3649542e-07
1.6265256e-05
7.2396716e-07
1.9410316e-05
1.1441002e-06
2.312567e-05
1.7371389e-06
2.7498139e-05
2.5756382e-06
3.2622433e-05
3.794088e-06
3.8581018e-05
5.5737239e-06
4.5419306e-05
8.1160134e-06
5.3133413e-05
1.1600497e-05
6.1660005e-05
1.6087644e-05
7.0922054e-05
2.2207465e-05
8.0655417e-05
2.985624e-05
9.0647672e-05
4.0536195e-05
0.00010049172
5.6754991e-05
0.00010842106
7.7543922e-05
0.00011286758
0.0001014308
0.00011409683
0.00012969115
0.00011152207
0.00016280556
0.00010225294
0.00019895783
8.5509642e-05
0.00023443326
6.4971344e-05
0.00027159904
4.162962e-05
0.00031738755
7.3348165e-06
0.00036736933
-4.1661365e-05
0.0004218016
-0.00010299253
0.00047644693
-0.00017781013
0.00053056143
-0.00026150869
0.00058124806
-0.00035041485
0.0006099752
-0.0004539821
0.00062121536
-0.00058052496
0.0006252334
-0.0007218814
0.00058452329
-0.00088189126
0.00051645783
-0.0010660444
0.00046914191
-0.0012566617
0.00037204086
-0.0014501092
0.00024061318
-0.0016458086
-0.00094719888
-2.9073811e-06
1.31772e-06
-2.8989589e-06
1.5709861e-06
-2.8911738e-06
1.8820171e-06
-2.88606e-06
2.2545767e-06
-2.8841408e-06
2.7008157e-06
-2.8848024e-06
3.2352493e-06
-2.8888373e-06
3.8752218e-06
-2.8926832e-06
4.6414078e-06
-2.896269e-06
5.5584148e-06
-2.893779e-06
6.6555016e-06
-2.8819579e-06
7.9671956e-06
-2.8552026e-06
9.5345221e-06
-2.8022914e-06
1.1405229e-05
-2.7181461e-06
1.3635585e-05
-2.5819884e-06
1.629026e-05
-2.3635095e-06
1.943874e-05
-2.0345655e-06
2.3156364e-05
-1.5654527e-06
2.7528975e-05
-8.9131323e-07
3.2650584e-05
1.1675357e-07
3.8602321e-05
1.6324343e-06
4.5425503e-05
3.8535789e-06
5.3109068e-05
6.968072e-06
6.1579279e-05
1.1069408e-05
7.073968e-05
1.6775541e-05
8.0293501e-05
2.4081077e-05
8.9964363e-05
3.4617081e-05
9.9184293e-05
5.072052e-05
0.00010599111
7.1138738e-05
0.00010885499
9.4718524e-05
0.00010803142
0.00012266146
0.00010273554
0.00015535667
9.0112546e-05
0.00019124321
6.9330538e-05
0.00022703764
4.3798189e-05
0.00026497161
1.4342225e-05
0.00031085526
-2.672174e-05
0.00036122872
-8.3057978e-05
0.0004161917
-0.00015263545
0.0004720291
-0.00023636657
0.00052735212
-0.00032920455
0.00057949754
-0.0004271258
0.00061013064
-0.00053770826
0.00062354989
-0.00066755503
0.00062972092
-0.00080957946
0.00059196685
-0.00096561062
0.00053037337
-0.0011389317
0.00048090666
-0.0013157913
0.00038045182
-0.0014938562
0.00024797053
-0.0016664245
-0.0009487936
-5.5276488e-06
1.324225e-06
-5.5220677e-06
1.5787166e-06
-5.5169124e-06
1.8912713e-06
-5.5152032e-06
2.2657044e-06
-5.5185703e-06
2.7142191e-06
-5.5266542e-06
3.2513954e-06
-5.5397118e-06
3.8946649e-06
-5.5543484e-06
4.664788e-06
-5.5699142e-06
5.5864456e-06
-5.5812603e-06
6.6890706e-06
-5.5858198e-06
8.0072947e-06
-5.5792402e-06
9.5823342e-06
-5.5528344e-06
1.1462121e-05
-5.5031204e-06
1.3703103e-05
-5.4134134e-06
1.6370279e-05
-5.2587331e-06
1.9533112e-05
-5.0179763e-06
2.3266572e-05
-4.6684137e-06
2.7656208e-05
-4.1504725e-06
3.2796015e-05
-3.3400493e-06
3.8765918e-05
-2.0689544e-06
4.5604387e-05
-1.4319375e-07
5.3294045e-05
2.6298185e-06
6.1752587e-05
6.3707082e-06
7.0865504e-05
1.1672529e-05
8.030997e-05
1.8621633e-05
8.9743421e-05
2.9005513e-05
9.8410408e-05
4.497798e-05
0.00010415292
6.5008955e-05
0.00010551402
8.8263788e-05
0.00010273694
0.00011586398
9.482318e-05
0.00014813787
7.8954283e-05
0.00018376119
5.4227018e-05
0.00021982646
2.3751618e-05
0.00025843657
-1.1829304e-05
0.00030440486
-5.9688392e-05
0.00035514016
-0.00012338653
0.00041060793
-0.00020128189
0.00046759953
-0.00029410569
0.00052410852
-0.00039636763
0.00057769201
-0.00050362819
0.00061027421
-0.00062169272
0.00062595297
-0.00075548432
0.00063419251
-0.00089884461
0.00059943346
-0.0010516113
0.00054370356
-0.0012152433
0.00049234623
-0.0013787835
0.00038900515
-0.0015403951
0.0002554276
-0.0016890394
-0.00095141332
-7.9836892e-06
1.3350088e-06
-7.9960394e-06
1.5916807e-06
-8.0133287e-06
1.906956e-06
-8.0336408e-06
2.2846906e-06
-8.0558579e-06
2.7371454e-06
-8.0777724e-06
3.2789684e-06
-8.0990963e-06
3.9277276e-06
-8.1172935e-06
4.7042995e-06
-8.1327575e-06
5.6335726e-06
-8.1428815e-06
6.7450902e-06
-8.1476885e-06
8.0738483e-06
-8.1463467e-06
9.6612934e-06
-8.1343899e-06
1.15559e-05
-8.1124785e-06
1.3814633e-05
-8.0680195e-06
1.6503174e-05
-7.9812349e-06
1.9691697e-05
-7.830164e-06
2.3454805e-05
-7.5940893e-06
2.7877949e-05
-7.2225859e-06
3.3056172e-05
-6.5961386e-06
3.9069204e-05
-5.5509737e-06
4.5952634e-05
-3.89527e-06
5.3683054e-05
-1.4367733e-06
6.2171754e-05
1.9722504e-06
7.1286017e-05
6.8877188e-06
8.0680992e-05
1.3483776e-05
8.9952752e-05
2.3708825e-05
9.8129496e-05
3.9524789e-05
0.00010286699
5.9158278e-05
0.00010281415
8.2074919e-05
9.8182037e-05
0.00010931623
8.7754381e-05
0.00014117014
6.8741494e-05
0.00017653296
4.0151364e-05
0.00021282291
4.7870124e-06
0.00025202712
-3.6888811e-05
0.00029806688
-9.1531247e-05
0.00034913642
-0.00016260469
0.00040508527
-0.00024887621
0.00046319156
-0.00035095201
0.0005208632
-0.00046289846
0.00057586221
-0.00057980112
0.0006104127
-0.00070578354
0.00062839833
-0.00084414991
0.00063865388
-0.00098948897
0.00060690248
-0.0011397005
0.00055651377
-0.0012947353
0.00050351318
-0.0014454672
0.00039768725
-0.0015898042
0.00026298406
-0.0017138224
-0.00095510322
-1.026375e-05
1.3497893e-06
-1.0278502e-05
1.6091686e-06
-1.0297561e-05
1.9277535e-06
-1.0319075e-05
2.3094067e-06
-1.0341953e-05
2.7665172e-06
-1.036477e-05
3.3140211e-06
-1.0387631e-05
3.9695853e-06
-1.0409086e-05
4.7544265e-06
-1.04303e-05
5.6937044e-06
-1.044982e-05
6.817387e-06
-1.0469284e-05
8.1607529e-06
-1.048961e-05
9.7659546e-06
-1.0510478e-05
1.1681963e-05
-1.0534616e-05
1.3966708e-05
-1.0555864e-05
1.6687187e-05
-1.0547361e-05
1.9913436e-05
-1.0484471e-05
2.3719613e-05
-1.0357492e-05
2.819248e-05
-1.0122501e-05
3.3428755e-05
-9.6670963e-06
3.9508781e-05
-8.8313369e-06
4.6465994e-05
-7.4214949e-06
5.4270126e-05
-5.2523387e-06
6.2828729e-05
-2.1434488e-06
7.1989856e-05
2.4150707e-06
8.1390738e-05
8.6750315e-06
9.0571552e-05
1.8734852e-05
9.8319243e-05
3.4360158e-05
0.00010210872
5.3586032e-05
0.00010072437
7.6154583e-05
9.4330849e-05
0.00010302681
8.1485205e-05
0.00013446522
5.9426449e-05
0.00016956947
2.7057165e-05
0.00020604246
-1.3141519e-05
0.00024576311
-6.0898527e-05
0.00029186148
-0.00012232534
0.00034323865
-0.00020077935
0.00039964718
-0.00029547824
0.00045882825
-0.00040695733
0.00051763789
-0.00052884602
0.00057403114
-0.00065569385
0.00061054991
-0.0007900334
0.0006308711
-0.00093359067
0.00064310648
-0.0010815388
0.00061436699
-0.0012298899
0.00056886996
-0.0013773352
0.00051447056
-0.001515656
0.00040647668
-0.0016419766
0.00027062568
-0.0017406911
-0.00095980448
-1.2378209e-05
1.3685645e-06
-1.2381404e-05
1.6315569e-06
-1.2383032e-05
1.9544742e-06
-1.2385774e-05
2.3412394e-06
-1.2391379e-05
2.8044163e-06
-1.2401531e-05
3.3590629e-06
-1.2417985e-05
4.0232197e-06
-1.2440911e-05
4.8183556e-06
-1.2472258e-05
5.7700333e-06
-1.251194e-05
6.9087729e-06
-1.2562137e-05
8.2704792e-06
-1.2624797e-05
9.8981514e-06
-1.2700096e-05
1.184178e-05
-1.2793137e-05
1.4160835e-05
-1.2889467e-05
1.6922553e-05
-1.2954009e-05
2.0196526e-05
-1.2969976e-05
2.4057781e-05
-1.2947011e-05
2.8595782e-05
-1.2851499e-05
3.3910583e-05
-1.256315e-05
4.0082359e-05
-1.1923125e-05
4.7141328e-05
-1.0738808e-05
5.5051773e-05
-8.8356166e-06
6.3718321e-05
-5.9961626e-06
7.2967776e-05
-1.7645305e-06
8.242184e-05
4.1847368e-06
9.1564239e-05
1.4076855e-05
9.893074e-05
2.9478659e-05
0.00010183682
4.8287679e-05
9.9210665e-05
7.0502165e-05
9.1147983e-05
9.7000795e-05
7.5978257e-05
0.0001280309
5.0963619e-05
0.00016287935
1.4889851e-05
0.00019949806
-3.0087948e-05
0.00023966753
-8.3883184e-05
0.00028581121
-0.00015206749
0.00033747184
-0.00023789928
0.00039432048
-0.00034106592
0.00045453926
-0.00046208404
0.00051446436
-0.00059415071
0.00057223013
-0.00073123017
0.00061070447
-0.0008743383
0.00063336983
-0.0010236795
0.00064756298
-0.0011748463
0.00062182396
-0.0013220325
0.0005808386
-0.0014628561
0.00052525227
-0.0015892483
0.00041535661
-0.0016970127
0.00027834192
-0.0017698175
-0.00096559718
-1.4316754e-05
1.3909842e-06
-1.4288016e-05
1.6577446e-06
-1.4259299e-05
1.985305e-06
-1.4240966e-05
2.3776983e-06
-1.4236039e-05
2.847793e-06
-1.4245043e-05
3.4110399e-06
-1.4269681e-05
4.0857669e-06
-1.4308937e-05
4.8938069e-06
-1.4364673e-05
5.8613196e-06
-1.4436145e-05
7.0192094e-06
-1.452602e-05
8.4042523e-06
-1.4635672e-05
1.0060093e-05
-1.4765593e-05
1.2037972e-05
-1.4916952e-05
1.4398032e-05
-1.5063802e-05
1.7207469e-05
-1.5177329e-05
2.0537006e-05
-1.5264266e-05
2.4464683e-05
-1.5350909e-05
2.9084623e-05
-1.5404347e-05
3.4499637e-05
-1.5287629e-05
4.0786607e-05
-1.483478e-05
4.7973934e-05
-1.3859513e-05
5.602142e-05
-1.2201178e-05
6.4832549e-05
-9.6026185e-06
7.4209749e-05
-5.6717607e-06
8.3760273e-05
-3.2370932e-09
9.2912976e-05
9.7232296e-06
9.9945019e-05
2.487001e-05
0.00010202767
4.3256496e-05
9.8243304e-05
6.5113953e-05
8.859848e-05
9.1238381e-05
7.1190573e-05
0.0001218685
4.3306523e-05
0.00015646482
3.6028808e-06
0.00019319675
-4.6102097e-05
0.00023375362
-0.00010591318
0.00027992892
-0.00018084162
0.00033185002
-0.00027404277
0.00038912105
-0.00038571316
0.00045034213
-0.0005164019
0.00051136113
-0.00065888404
0.00057047894
-0.0008064848
0.00061088488
-0.00095877506
0.00063589206
-0.0011144815
0.00065202376
-0.0012694717
0.00062927098
-0.001416175
0.00059247105
-0.0015512807
0.00053588291
-0.0016661
0.00042430766
-0.001754784
0.00028611151
-0.0018010889
-0.00097240341
-1.6156092e-05
1.4175971e-06
-1.6139274e-05
1.6901393e-06
-1.6124621e-05
2.0248351e-06
-1.6120882e-05
2.4257457e-06
-1.6129532e-05
2.9059341e-06
-1.6149967e-05
3.4809091e-06
-1.6184153e-05
4.16931e-06
-1.6231496e-05
4.99345e-06
-1.6295718e-05
5.979683e-06
-1.6376679e-05
7.1598179e-06
-1.6479326e-05
8.5711721e-06
-1.6604491e-05
1.0258433e-05
-1.6754577e-05
1.2273963e-05
-1.6922114e-05
1.4678674e-05
-1.7085867e-05
1.7540586e-05
-1.7233945e-05
2.0933729e-05
-1.7391287e-05
2.4941187e-05
-1.7597518e-05
2.9660948e-05
-1.7800804e-05
3.5196111e-05
-1.7849202e-05
4.1620815e-05
-1.757347e-05
4.8960805e-05
-1.6794671e-05
5.7174227e-05
-1.5362555e-05
6.6164488e-05
-1.2985308e-05
7.570851e-05
-9.335951e-06
8.539955e-05
-3.917909e-06
9.4600834e-05
5.6479266e-06
0.00010133474
2.0518273e-05
0.00010265463
3.8482968e-05
9.7792844e-05
5.9983126e-05
8.6648429e-05
8.5736076e-05
6.7084676e-05
0.00011597585
3.6408304e-05
0.00015032401
-6.8613256e-06
0.00018713888
-6.1237838e-05
0.00022802635
-0.00012700535
0.00027421852
-0.00020863084
0.00032637757
-0.00030918197
0.00038405268
-0.00042937821
0.000446241
-0.00056984834
0.0005083343
-0.00072295549
0.00056878238
-0.00088134371
0.00061108669
-0.0010431901
0.00063841908
-0.0012057987
0.0006564796
-0.0013651859
0.00063669182
-0.0015120864
0.00060379262
-0.0016423532
0.00054636811
-0.0017460938
0.00043332014
-0.001815379
0.0002939182
-0.0018346476
-0.00098030501
-1.7893457e-05
1.4475842e-06
-1.7919118e-05
1.7259658e-06
-1.794657e-05
2.067838e-06
-1.7977181e-05
2.4774872e-06
-1.8010542e-05
2.9681265e-06
-1.804814e-05
3.5557902e-06
-1.8092046e-05
4.2595113e-06
-1.8143631e-05
5.101954e-06
-1.8207952e-05
6.1103544e-06
-1.8286979e-05
7.3167743e-06
-1.8386377e-05
8.7595401e-06
-1.8508675e-05
1.0483884e-05
-1.8655111e-05
1.2543038e-05
-1.882125e-05
1.4999024e-05
-1.8995341e-05
1.7922377e-05
-1.9180507e-05
2.1390574e-05
-1.9415964e-05
2.5492109e-05
-1.9734323e-05
3.0329066e-05
-2.0066609e-05
3.6001109e-05
-2.0258244e-05
4.2581164e-05
-2.0144072e-05
5.0096715e-05
-1.9550275e-05
5.850415e-05
-1.8330192e-05
6.77061e-05
-1.6163181e-05
7.7454976e-05
-1.2778872e-05
8.7329495e-05
-7.5803394e-06
9.6616956e-05
1.8324761e-06
0.0001030878
1.6413514e-05
0.00010369746
3.3958809e-05
9.7830786e-05
5.5103208e-05
8.5263797e-05
8.0489343e-05
6.3619338e-05
0.0001103497
3.0223673e-05
0.00014445438
-1.654996e-05
0.00018132462
-7.5548977e-05
0.00022248725
-0.00014723373
0.00026868176
-0.00023552221
0.00032105588
-0.00034339993
0.00037911839
-0.00047214164
0.0004422383
-0.00062250207
0.00050538708
-0.00078644783
0.00056714443
-0.00095589573
0.00061130524
-0.0011276716
0.0006409382
-0.0012977077
0.00066092232
-0.001462063
0.00064408022
-0.0016098287
0.00061482386
-0.0017360969
0.00055672507
-0.0018291381
0.00044237209
-0.0018786845
0.00030174702
-0.001870397
-0.00098923433
-1.9465983e-05
1.4810619e-06
-1.9498247e-05
1.7659359e-06
-1.9535301e-05
2.1158047e-06
-1.9578247e-05
2.5349762e-06
-1.9627049e-05
3.0371078e-06
-1.9683153e-05
3.6386348e-06
-1.9747633e-05
4.3589916e-06
-1.9822119e-05
5.2215645e-06
-1.9909473e-05
6.2541977e-06
-2.0011656e-05
7.4897623e-06
-2.0132151e-05
8.9676329e-06
-2.0273251e-05
1.0733842e-05
-2.043561e-05
1.2842874e-05
-2.0618538e-05
1.5358182e-05
-2.0821244e-05
1.8353005e-05
-2.1058366e-05
2.1908915e-05
-2.1373616e-05
2.611902e-05
-2.1782565e-05
3.108654e-05
-2.2212529e-05
3.6909894e-05
-2.2524073e-05
4.3663427e-05
-2.2554804e-05
5.1376436e-05
-2.213249e-05
6.0005732e-05
-2.1112035e-05
6.9450447e-05
-1.9150688e-05
7.9441712e-05
-1.6017638e-05
8.9543986e-05
-1.1011793e-05
9.8950426e-05
-1.7415354e-06
0.00010518328
1.2545137e-05
0.00010513036
2.9674792e-05
9.832894e-05
5.0466809e-05
8.4411753e-05
7.5492771e-05
6.0757447e-05
0.00010498516
2.470694e-05
0.00013885213
-2.551772e-05
0.00017575368
-8.9088646e-05
0.00021714208
-0.0001666261
0.00026332315
-0.00026151796
0.00031589133
-0.00037668924
0.00037432495
-0.00051398476
0.0004383435
-0.0006743279
0.00050253215
-0.00084930436
0.00056557686
-0.0010300654
0.00061154884
-0.0012121129
0.00064345144
-0.0013900633
0.00066535607
-0.001559934
0.00065143506
-0.0017092357
0.00062559704
-0.0018323132
0.00056695611
-0.0019151446
0.00045144381
-0.0019447859
0.00030958418
-0.0019084749
-0.00099928235
-2.0917001e-05
1.5179304e-06
-2.0953826e-05
1.8100084e-06
-2.0996755e-05
2.16863e-06
-2.1047132e-05
2.598347e-06
-2.1105435e-05
3.1131339e-06
-2.1173297e-05
3.7298603e-06
-2.125218e-05
4.4684471e-06
-2.134413e-05
5.3530769e-06
-2.1451742e-05
6.4120589e-06
-2.1577249e-05
7.6795371e-06
-2.1723511e-05
9.195656e-06
-2.1892843e-05
1.1007971e-05
-2.2087084e-05
1.3172235e-05
-2.2306417e-05
1.5754329e-05
-2.2556519e-05
1.8829916e-05
-2.2859606e-05
2.248452e-05
-2.3249714e-05
2.681521e-05
-2.3731684e-05
3.1926747e-05
-2.4241367e-05
3.7917124e-05
-2.4654206e-05
4.4861958e-05
-2.4815357e-05
5.2794189e-05
-2.4551129e-05
6.1671326e-05
-2.3717823e-05
7.1389815e-05
-2.1959613e-05
8.1660331e-05
-1.9070299e-05
9.2032168e-05
-1.4234199e-05
0.00010159224
-5.093034e-06
0.00010761071
8.8986836e-06
0.00010693477
2.5620303e-05
9.9261393e-05
4.6064954e-05
8.4060729e-05
7.0738852e-05
5.8460408e-05
9.9875442e-05
1.981578e-05
0.00013351179
-3.3810252e-05
0.00017042446
-0.00010191325
0.00021199251
-0.00018526204
0.00025814458
-0.00028671079
0.0003108858
-0.00040913855
0.00036967511
-0.00055499457
0.00043456198
-0.00072541572
0.00049977583
-0.00091162299
0.00056408631
-0.0011039594
0.00061181976
-0.0012966204
0.00064595736
-0.0014829642
0.0006697796
-0.0016588985
0.00065875611
-0.0018103937
0.00063613317
-0.00193106
0.00057706355
-0.0020040291
0.00046051973
-0.0020135402
0.00031740938
-0.001948755
-0.0010103685
-2.225264e-05
1.5581545e-06
-2.2293697e-05
1.8580519e-06
-2.2341875e-05
2.2262159e-06
-2.2398578e-05
2.6673369e-06
-2.2464782e-05
3.1959387e-06
-2.2542221e-05
3.8290932e-06
-2.2632862e-05
4.5876013e-06
-2.2738822e-05
5.4960291e-06
-2.2863244e-05
6.5837605e-06
-2.300853e-05
7.8857072e-06
-2.3178563e-05
9.4432841e-06
-2.3376456e-05
1.1305578e-05
-2.3605866e-05
1.3530284e-05
-2.3870537e-05
1.6185468e-05
-2.4179276e-05
1.9349581e-05
-2.4552806e-05
2.3112433e-05
-2.5017328e-05
2.7575475e-05
-2.5568863e-05
3.284441e-05
-2.61495e-05
3.901738e-05
-2.6652117e-05
4.6172012e-05
-2.6930824e-05
5.4344783e-05
-2.6813394e-05
6.3494823e-05
-2.615359e-05
7.3514693e-05
-2.4592521e-05
8.4095871e-05
-2.194742e-05
9.4782803e-05
-1.7266077e-05
0.00010453304
-8.2411927e-06
0.00011035733
5.4601989e-06
0.00010909574
2.1785048e-05
0.0001006058
4.1888624e-05
8.4182574e-05
6.6219255e-05
5.6696554e-05
9.501231e-05
1.5510663e-05
0.00012842619
-4.1475546e-05
0.00016533164
-0.00011406521
0.00020703555
-0.00020315024
0.00025314086
-0.00031107711
0.00030603385
-0.00044070907
0.00036516311
-0.00059511636
0.0004308871
-0.000775685
0.00049711269
-0.00097329381
0.00056266592
-0.0011774417
0.00061210726
-0.0013810167
0.00064843957
-0.001576179
0.00067417601
-0.0017586924
0.00066602496
-0.0019130369
0.00064643877
-0.0020320443
0.00058704403
-0.0020956582
0.00046959167
-0.0020850161
0.00032520395
-0.0019913513
-0.0010225722
-2.3479852e-05
1.6016313e-06
-2.3524893e-05
1.9099135e-06
-2.3577929e-05
2.2884225e-06
-2.3640543e-05
2.7419251e-06
-2.3713846e-05
3.2853777e-06
-2.3799975e-05
3.9363791e-06
-2.3901021e-05
4.7163457e-06
-2.4019443e-05
5.6504585e-06
-2.415865e-05
6.7690954e-06
-2.4321786e-05
8.1081844e-06
-2.4513869e-05
9.7104393e-06
-2.4739342e-05
1.1626424e-05
-2.5004386e-05
1.3916586e-05
-2.5315906e-05
1.6650932e-05
-2.5684659e-05
1.9911002e-05
-2.6130147e-05
2.379139e-05
-2.6668942e-05
2.8397214e-05
-2.7289086e-05
3.383605e-05
-2.7937809e-05
4.0206799e-05
-2.8523356e-05
4.7589638e-05
-2.8908277e-05
5.6022912e-05
-2.8927426e-05
6.5468809e-05
-2.8425992e-05
7.5814887e-05
-2.7053661e-05
8.6739378e-05
-2.4656462e-05
9.7785894e-05
-2.0122252e-05
0.00010776289
-1.12006e-05
0.00011341292
2.2194867e-06
0.0001115939
1.815918e-05
0.00010233615
3.7928694e-05
8.4746268e-05
6.1925487e-05
5.5428383e-05
9.038735e-05
1.1750535e-05
0.00012358806
-4.8559446e-05
0.0001604709
-0.00012560538
0.0002022673
-0.00022037585
0.00024830702
-0.00033471259
0.00030132971
-0.00047149322
0.00036078246
-0.00063444115
0.00042731342
-0.00082523349
0.00049453634
-0.0010344233
0.00056130769
-0.0012506251
0.00061240036
-0.0014654138
0.00065088462
-0.0016698159
0.00067853551
-0.0018594245
0.0006732317
-0.002017263
0.0006565125
-0.0021353489
0.0005968954
-0.0021899857
0.00047864127
-0.0021590823
0.00033295437
-0.0020361377
-0.0010358147
-2.4603922e-05
1.6482171e-06
-2.4652864e-05
1.9655081e-06
-2.4710552e-05
2.3550706e-06
-2.4778812e-05
2.821901e-06
-2.4858867e-05
3.3812136e-06
-2.495314e-05
4.0513584e-06
-2.5063848e-05
4.8542423e-06
-2.5193822e-05
5.8158693e-06
-2.5347177e-05
6.9676125e-06
-2.5527821e-05
8.3465034e-06
-2.5741946e-05
9.9966333e-06
-2.5996518e-05
1.1970824e-05
-2.6299163e-05
1.4331464e-05
-2.6657645e-05
1.7151179e-05
-2.7086649e-05
2.0515104e-05
-2.7601556e-05
2.4521975e-05
-2.8208904e-05
2.9280223e-05
-2.8894408e-05
3.4900181e-05
-2.9609358e-05
4.1483191e-05
-3.0271783e-05
4.9111779e-05
-3.0752347e-05
5.7823449e-05
-3.0897612e-05
6.7585453e-05
-3.053917e-05
7.8276957e-05
-2.9349371e-05
8.9569413e-05
-2.719833e-05
0.00010101813
-2.2802813e-05
0.00011125377
-1.3978899e-05
0.00011674836
-8.3167915e-07
0.00011440754
1.4733596e-05
0.00010442973
3.4175494e-05
8.5726556e-05
5.7848106e-05
5.4629132e-05
8.5992245e-05
8.5008533e-06
0.00011899038
-5.5105281e-05
0.00015583868
-0.00013657426
0.00019768805
-0.00023695663
0.00024364273
-0.00035761294
0.00029677313
-0.00050147514
0.00035653412
-0.00067294214
0.00042384291
-0.00087401411
0.00049204705
-0.0010949368
0.0005600088
-0.0013234058
0.00061269815
-0.0015496749
0.00065329168
-0.0017637061
0.00068285668
-0.0019609103
0.00068037187
-0.0021228879
0.00066637415
-0.0022407572
0.00060661261
-0.00228691
0.00048764388
-0.0022358019
0.00034064855
-0.0020832247
-0.0010501773
-2.5629705e-05
1.6977811e-06
-2.5682476e-05
2.0247928e-06
-2.5744747e-05
2.4261585e-06
-2.5818344e-05
2.9070644e-06
-2.5904904e-05
3.4833899e-06
-2.6006993e-05
4.1739539e-06
-2.6127185e-05
5.001206e-06
-2.6268974e-05
5.9923272e-06
-2.6437166e-05
7.1793489e-06
-2.6636944e-05
8.60083e-06
-2.6875409e-05
1.0302452e-05
-2.7162423e-05
1.2339183e-05
-2.7504813e-05
1.4775854e-05
-2.7913855e-05
1.7687812e-05
-2.8402141e-05
2.1163674e-05
-2.8979349e-05
2.5304806e-05
-2.9649123e-05
3.0224333e-05
-3.0393329e-05
3.6036644e-05
-3.1169463e-05
4.2845344e-05
-3.1901176e-05
5.0734228e-05