/*--------------------------------*- C++ -*----------------------------------*\
  =========                 |
  \\      /  F ield         | OpenFOAM: The Open Source CFD Toolbox
   \\    /   O peration     | Website:  https://openfoam.org
    \\  /    A nd           | Version:  8
     \\/     M anipulation  |
\*---------------------------------------------------------------------------*/
FoamFile
{
    version     2.0;
    format      ascii;
    class       volScalarField;
    location    "0.0300106";
    object      nut;
}
// * * * * * * * * * * * * * * * * * * * * * * * * * * * * * * * * * * * * * //

dimensions      [0 2 -1 0 0 0 0];

internalField   nonuniform List<scalar> 
20000
(
0.0010947238
0.0027265283
0.0036499275
0.0039800556
0.0035712978
0.0020983361
0.0003084307
1.8319753e-08
4.9875244e-09
4.982933e-09
4.8630659e-09
4.9017554e-09
4.8458826e-09
4.8767259e-09
4.8756125e-09
4.9052115e-09
4.9287984e-09
4.9713766e-09
5.0191456e-09
5.0845834e-09
5.1608655e-09
5.2541969e-09
5.3610322e-09
5.4860118e-09
5.6261948e-09
5.7825305e-09
5.9529592e-09
6.1337241e-09
6.3175873e-09
6.4973283e-09
6.6666976e-09
6.8200049e-09
6.9534827e-09
7.0653898e-09
7.1545344e-09
7.2230858e-09
7.27166e-09
7.2969717e-09
7.3027316e-09
7.2796556e-09
7.2375753e-09
7.2212917e-09
7.2897167e-09
7.3494499e-09
7.3723134e-09
7.3752688e-09
7.3632521e-09
7.3558568e-09
7.3519821e-09
7.3500786e-09
0.0010793367
0.002680022
0.0035791963
0.0038821507
0.0034442238
0.0019056132
0.00023411533
1.1803311e-08
4.9562267e-09
4.958539e-09
4.8397825e-09
4.8799178e-09
4.824729e-09
4.8565238e-09
4.856395e-09
4.8875497e-09
4.9133721e-09
4.9591167e-09
5.0095524e-09
5.0772139e-09
5.1557463e-09
5.2512904e-09
5.3604812e-09
5.4870845e-09
5.631588e-09
5.792148e-09
5.9660033e-09
6.1496846e-09
6.3353428e-09
6.5154783e-09
6.6839798e-09
6.8353919e-09
6.9663897e-09
7.0754718e-09
7.1614501e-09
7.2292882e-09
7.273973e-09
7.2955373e-09
7.3004325e-09
7.2687999e-09
7.2354187e-09
7.2211572e-09
7.296737e-09
7.3525241e-09
7.3725929e-09
7.3755895e-09
7.3630982e-09
7.3558072e-09
7.3519813e-09
7.3500756e-09
0.0010782661
0.0026538434
0.0035185249
0.0037833476
0.0033043396
0.00169099
0.00015856948
8.561079e-09
4.9345212e-09
4.9403196e-09
4.8232524e-09
4.864204e-09
4.8103075e-09
4.8435594e-09
4.8454469e-09
4.878803e-09
4.9067651e-09
4.9542236e-09
5.0062758e-09
5.0755003e-09
5.1552815e-09
5.2515153e-09
5.3632403e-09
5.4942546e-09
5.6424412e-09
5.8068902e-09
5.9843295e-09
6.170603e-09
6.3576547e-09
6.5377188e-09
6.7048187e-09
6.853774e-09
6.98171e-09
7.0872636e-09
7.1698624e-09
7.23609e-09
7.2765921e-09
7.2939266e-09
7.2946834e-09
7.2538461e-09
7.2289882e-09
7.2242966e-09
7.3089043e-09
7.3556512e-09
7.3725831e-09
7.3752925e-09
7.3631041e-09
7.3558577e-09
7.352021e-09
7.3500925e-09
0.0010751774
0.0026246941
0.0034562981
0.003684057
0.0031674945
0.0014925833
9.4846316e-05
6.9757105e-09
4.918051e-09
4.9276369e-09
4.8129449e-09
4.8546851e-09
4.8034326e-09
4.837951e-09
4.8408379e-09
4.8751446e-09
4.9042545e-09
4.9529169e-09
5.0056523e-09
5.075468e-09
5.1569666e-09
5.2567867e-09
5.372496e-09
5.5074075e-09
5.6598887e-09
5.8283169e-09
6.009012e-09
6.1974764e-09
6.3853004e-09
6.5645806e-09
6.7295264e-09
6.8753363e-09
6.999556e-09
7.1009351e-09
7.1803695e-09
7.243141e-09
7.2791613e-09
7.2928844e-09
7.2883157e-09
7.2434366e-09
7.2225241e-09
7.2311626e-09
7.3146365e-09
7.3587601e-09
7.373341e-09
7.3752802e-09
7.3630729e-09
7.3558643e-09
7.3520282e-09
7.3500988e-09
0.0010722409
0.0025961192
0.0033943725
0.0035832179
0.0030306097
0.0013042812
4.6815995e-05
6.1569908e-09
4.9124061e-09
4.9200603e-09
4.8054035e-09
4.8444575e-09
4.8004313e-09
4.8356975e-09
4.839619e-09
4.8743449e-09
4.9040074e-09
4.9533358e-09
5.0082118e-09
5.0808118e-09
5.165338e-09
5.2682137e-09
5.3877645e-09
5.5269266e-09
5.6835357e-09
5.8557868e-09
6.0395116e-09
6.2297144e-09
6.4177148e-09
6.5955385e-09
6.7576325e-09
6.8996314e-09
7.0194568e-09
7.1161001e-09
7.1922914e-09
7.2502297e-09
7.2815454e-09
7.2922106e-09
7.2812442e-09
7.2347685e-09
7.2153108e-09
7.2417297e-09
7.3215409e-09
7.3618524e-09
7.3746096e-09
7.3752206e-09
7.3630714e-09
7.3558791e-09
7.3520389e-09
7.3501063e-09
0.0010693725
0.0025683887
0.0033337143
0.0034814584
0.0028912346
0.0011266012
1.8609215e-05
5.7222007e-09
4.903491e-09
4.9116676e-09
4.7966254e-09
4.8389346e-09
4.7998155e-09
4.8354331e-09
4.8401385e-09
4.8762914e-09
4.9079201e-09
4.959429e-09
5.0165484e-09
5.0915904e-09
5.1792046e-09
5.2857395e-09
5.4093252e-09
5.5526768e-09
5.7135098e-09
5.8894674e-09
6.0758988e-09
6.2673557e-09
6.4548957e-09
6.6305481e-09
6.7890704e-09
6.926564e-09
7.0413127e-09
7.1328436e-09
7.2055016e-09
7.257334e-09
7.283695e-09
7.2913798e-09
7.2743762e-09
7.2283326e-09
7.2094105e-09
7.2524849e-09
7.3276349e-09
7.3650861e-09
7.3765911e-09
7.3751744e-09
7.3630626e-09
7.3558859e-09
7.3520448e-09
7.3501126e-09
0.0010665558
0.0025410005
0.0032745031
0.0033841468
0.0027474441
0.00096079651
6.2751247e-06
5.4850146e-09
4.9028138e-09
4.9065123e-09
4.7945059e-09
4.8346843e-09
4.8030786e-09
4.8397535e-09
4.8460069e-09
4.8835511e-09
4.9169222e-09
4.9704225e-09
5.0300754e-09
5.108003e-09
5.1989335e-09
5.3091185e-09
5.4368502e-09
5.584515e-09
5.7495374e-09
5.9290566e-09
6.1178755e-09
6.3100752e-09
6.4965054e-09
6.6692844e-09
6.8235156e-09
6.9557845e-09
7.0648309e-09
7.1511791e-09
7.2195211e-09
7.2643451e-09
7.2855177e-09
7.290636e-09
7.2662026e-09
7.223047e-09
7.2064169e-09
7.2633835e-09
7.3336276e-09
7.3684996e-09
7.3790234e-09
7.3751333e-09
7.3630572e-09
7.3558923e-09
7.3520497e-09
7.3501186e-09
0.0010636068
0.002513906
0.0032165971
0.003284265
0.0025969103
0.00080813087
1.9580264e-06
5.3569175e-09
4.9047955e-09
4.9113469e-09
4.8005264e-09
4.8430833e-09
4.8108915e-09
4.8485753e-09
4.8563034e-09
4.8954116e-09
4.9308059e-09
4.9864763e-09
5.0487793e-09
5.1296385e-09
5.2240565e-09
5.3381423e-09
5.4701682e-09
5.6222213e-09
5.7914441e-09
5.9743646e-09
6.1652121e-09
6.3576156e-09
6.5422799e-09
6.7114709e-09
6.860675e-09
6.9869897e-09
7.0898571e-09
7.1712485e-09
7.2338583e-09
7.2713137e-09
7.2871811e-09
7.2899006e-09
7.2571239e-09
7.218949e-09
7.20513e-09
7.2732657e-09
7.3393492e-09
7.3719545e-09
7.3816752e-09
7.3751102e-09
7.3630445e-09
7.3558959e-09
7.3520534e-09
7.3501239e-09
0.0010603859
0.0024860121
0.0031564957
0.0031828731
0.00244003
0.00067075486
6.1357641e-07
5.2878211e-09
4.9097932e-09
4.9178023e-09
4.809897e-09
4.8534116e-09
4.8229658e-09
4.8617569e-09
4.8711055e-09
4.9118009e-09
4.9492197e-09
5.0071557e-09
5.0722442e-09
5.1562507e-09
5.2543496e-09
5.3725009e-09
5.5089968e-09
5.6655578e-09
5.8389714e-09
6.0251186e-09
6.2176128e-09
6.4096609e-09
6.5918887e-09
6.7567647e-09
6.9001749e-09
7.0198441e-09
7.1162979e-09
7.1927772e-09
7.2480375e-09
7.278257e-09
7.2891836e-09
7.2878759e-09
7.2484913e-09
7.2155585e-09
7.2046664e-09
7.2825248e-09
7.3449188e-09
7.3753678e-09
7.3843509e-09
7.3750928e-09
7.3630192e-09
7.3558833e-09
7.3520564e-09
7.3501287e-09
0.0010572045
0.0024584703
0.0030959875
0.0030811468
0.0022758198
0.00055219514
2.0584134e-07
5.254367e-09
4.9187158e-09
4.9289078e-09
4.8234435e-09
4.8678161e-09
4.8390355e-09
4.8788957e-09
4.889898e-09
4.9322335e-09
4.9718191e-09
5.0321185e-09
5.1001856e-09
5.1875164e-09
5.289518e-09
5.4119597e-09
5.5531048e-09
5.7142825e-09
5.8918713e-09
6.0810376e-09
6.2747613e-09
6.4658691e-09
6.6449763e-09
6.8047793e-09
6.9416179e-09
7.0540933e-09
7.1441902e-09
7.2149849e-09
7.2618912e-09
7.2850958e-09
7.2924182e-09
7.2843811e-09
7.2401908e-09
7.2126047e-09
7.2045912e-09
7.2914795e-09
7.3503714e-09
7.3787868e-09
7.3870522e-09
7.3750822e-09
7.3629746e-09
7.3558583e-09
7.3520562e-09
7.3501327e-09
0.0010540785
0.0024308574
0.003035627
0.0029795283
0.002105112
0.00044654687
7.7070634e-08
5.24088e-09
4.9311172e-09
4.9431379e-09
4.8403891e-09
4.8856617e-09
4.8586389e-09
4.89956e-09
4.9123084e-09
4.956361e-09
4.9982351e-09
5.061089e-09
5.1323181e-09
5.2232001e-09
5.3293395e-09
5.4562956e-09
5.6022856e-09
5.7681936e-09
5.9499203e-09
6.141863e-09
6.3363593e-09
6.525909e-09
6.7011752e-09
6.8550981e-09
6.9846149e-09
7.0896013e-09
7.1735584e-09
7.2371326e-09
7.2752258e-09
7.2920617e-09
7.2967221e-09
7.2794983e-09
7.2329938e-09
7.2097299e-09
7.2093751e-09
7.3005315e-09
7.355917e-09
7.3819844e-09
7.3896764e-09
7.375054e-09
7.3629035e-09
7.3558142e-09
7.3520419e-09
7.350136e-09
0.0010510745
0.0024029889
0.0029745119
0.0028774445
0.0019281135
0.00035022092
3.3602219e-08
5.2394771e-09
4.9465687e-09
4.9606981e-09
4.8603679e-09
4.9065026e-09
4.8813308e-09
4.9233627e-09
4.9379927e-09
4.9838896e-09
5.0282415e-09
5.0938088e-09
5.1684285e-09
5.2630882e-09
5.3736109e-09
5.5053173e-09
5.6563415e-09
5.8270775e-09
6.0128747e-09
6.2073066e-09
6.4020779e-09
6.5894152e-09
6.7600694e-09
6.9072738e-09
7.028855e-09
7.126381e-09
7.2040914e-09
7.2586329e-09
7.287958e-09
7.2990548e-09
7.3011535e-09
7.2733769e-09
7.2272076e-09
7.205722e-09
7.2195058e-09
7.3100648e-09
7.3618779e-09
7.3849344e-09
7.3919333e-09
7.3749753e-09
7.3628003e-09
7.3557507e-09
7.3520196e-09
7.3501386e-09
0.0010481757
0.0023744175
0.0029113542
0.00276805
0.0017468019
0.00026332089
1.7645559e-08
5.2455789e-09
4.9647359e-09
4.9806124e-09
4.8829181e-09
4.9299969e-09
4.9068372e-09
4.9500707e-09
4.9667476e-09
5.0146374e-09
5.0616429e-09
5.1301358e-09
5.2083711e-09
5.3070543e-09
5.4222169e-09
5.5589186e-09
5.7151654e-09
5.890808e-09
6.0805614e-09
6.2771387e-09
6.4716258e-09
6.6560351e-09
6.8212304e-09
6.9608818e-09
7.0741546e-09
7.1644971e-09
7.2347695e-09
7.2792899e-09
7.300048e-09
7.3060868e-09
7.3040196e-09
7.2667688e-09
7.222434e-09
7.2027871e-09
7.2324258e-09
7.320566e-09
7.368697e-09
7.3878787e-09
7.3932975e-09
7.3748487e-09
7.3626634e-09
7.355668e-09
7.3519899e-09
7.3501407e-09
0.0010452333
0.0023450398
0.002846375
0.002658409
0.0015647976
0.00018507828
1.1167624e-08
5.2562678e-09
4.9850996e-09
5.0027985e-09
4.9079229e-09
4.956014e-09
4.9350445e-09
4.9795741e-09
4.9984718e-09
5.0484934e-09
5.0983428e-09
5.1699384e-09
5.2520169e-09
5.354962e-09
5.4750239e-09
5.6169622e-09
5.7786144e-09
5.9592109e-09
6.1527639e-09
6.3510816e-09
6.5446674e-09
6.7253565e-09
6.8841885e-09
7.0155695e-09
7.1204774e-09
7.2037986e-09
7.2647017e-09
7.2988441e-09
7.3117564e-09
7.3132122e-09
7.304869e-09
7.2606743e-09
7.2184679e-09
7.2014323e-09
7.2458701e-09
7.3313074e-09
7.3760999e-09
7.3914534e-09
7.3937961e-09
7.3746748e-09
7.3624913e-09
7.3555679e-09
7.3519548e-09
7.3501424e-09
0.0010422065
0.0023148979
0.0027771297
0.0025487078
0.0013845117
0.00011540463
8.2629853e-09
5.2704883e-09
5.0078274e-09
5.0273275e-09
4.9353845e-09
4.9845563e-09
4.9659299e-09
5.0118374e-09
5.0331091e-09
5.0853831e-09
5.1382593e-09
5.2131659e-09
5.2993291e-09
5.4067978e-09
5.532029e-09
5.6794537e-09
5.8466761e-09
6.0322343e-09
6.2293574e-09
6.4289267e-09
6.6209011e-09
6.7969684e-09
6.9485035e-09
7.071116e-09
7.1678592e-09
7.2433791e-09
7.2933229e-09
7.3172585e-09
7.3237024e-09
7.3202032e-09
7.3047336e-09
7.255227e-09
7.215784e-09
7.2010267e-09
7.2596648e-09
7.3413912e-09
7.3834003e-09
7.396395e-09
7.3938976e-09
7.3744601e-09
7.3622824e-09
7.3554521e-09
7.3519144e-09
7.3501426e-09
0.0010392339
0.0022854987
0.0027108303
0.0024371092
0.0012080293
5.90846e-05
6.8705006e-09
5.2870671e-09
5.0328116e-09
5.0541724e-09
4.9653177e-09
5.0156364e-09
4.9994865e-09
5.046837e-09
5.0705991e-09
5.1252829e-09
5.1813517e-09
5.2597584e-09
5.3502378e-09
5.4624859e-09
5.5931521e-09
5.7463078e-09
5.9192464e-09
6.1097367e-09
6.3101392e-09
6.510398e-09
6.6999489e-09
6.870408e-09
7.0138003e-09
7.127456e-09
7.2161911e-09
7.2821026e-09
7.3203687e-09
7.3350719e-09
7.3357432e-09
7.3273205e-09
7.3045033e-09
7.2507408e-09
7.2144494e-09
7.2012266e-09
7.2729809e-09
7.3508409e-09
7.3902523e-09
7.4022506e-09
7.3938856e-09
7.3741792e-09
7.3620354e-09
7.3553232e-09
7.351868e-09
7.3501379e-09
0.0010361332
0.00225565
0.0026438222
0.0023214027
0.001038389
2.3588606e-05
6.181918e-09
5.3061061e-09
5.0602615e-09
5.0834711e-09
4.9977826e-09
5.0492468e-09
5.0356757e-09
5.0845014e-09
5.1109335e-09
5.1681094e-09
5.2276016e-09
5.3097401e-09
5.4048046e-09
5.5221171e-09
5.6585047e-09
5.8176319e-09
5.9963977e-09
6.1917184e-09
6.3950117e-09
6.5952728e-09
6.7814454e-09
6.945249e-09
7.0798486e-09
7.184611e-09
7.2648138e-09
7.3191053e-09
7.3457795e-09
7.3529155e-09
7.3473104e-09
7.3343519e-09
7.3031209e-09
7.247004e-09
7.2137802e-09
7.2023356e-09
7.2863541e-09
7.3597765e-09
7.3965591e-09
7.4077685e-09
7.3938215e-09
7.3737877e-09
7.3617534e-09
7.3551834e-09
7.3518168e-09
7.3501311e-09
0.0010329017
0.0022251917
0.0025749276
0.002200023
0.00087809621
7.5436319e-06
5.8412638e-09
5.3287852e-09
5.0900944e-09
5.1150846e-09
5.0326284e-09
5.0852693e-09
5.074397e-09
5.1248109e-09
5.1540284e-09
5.21394e-09
5.2770181e-09
5.3630961e-09
5.4630007e-09
5.5856589e-09
5.7280529e-09
5.8933834e-09
6.0780569e-09
6.2780484e-09
6.4837587e-09
6.6832112e-09
6.86494e-09
7.021099e-09
7.1465716e-09
7.2424669e-09
7.3124134e-09
7.3541418e-09
7.3703565e-09
7.3703573e-09
7.3581533e-09
7.3404808e-09
7.2992836e-09
7.2437685e-09
7.2134655e-09
7.2061254e-09
7.3000522e-09
7.3683545e-09
7.402047e-09
7.4125413e-09
7.3932383e-09
7.3732886e-09
7.3614454e-09
7.3550357e-09
7.3517621e-09
7.3501227e-09
0.0010296116
0.0021944454
0.0025045395
0.002073609
0.00072980942
2.1354545e-06
5.6794887e-09
5.3542377e-09
5.1220244e-09
5.148828e-09
5.0697668e-09
5.1236535e-09
5.1156562e-09
5.1677323e-09
5.1999903e-09
5.2626953e-09
5.329636e-09
5.4199249e-09
5.5249756e-09
5.653302e-09
5.802003e-09
5.9737466e-09
6.164351e-09
6.3687488e-09
6.5762563e-09
6.7739151e-09
6.9500335e-09
7.0977257e-09
7.214001e-09
7.3004271e-09
7.3580062e-09
7.3870893e-09
7.3948268e-09
7.386855e-09
7.3680959e-09
7.3437131e-09
7.2939613e-09
7.2408521e-09
7.2154727e-09
7.2138468e-09
7.3141235e-09
7.3768977e-09
7.40671e-09
7.4160547e-09
7.3924518e-09
7.3727254e-09
7.3611203e-09
7.3548825e-09
7.3517053e-09
7.3501135e-09
0.0010263136
0.002163862
0.002432823
0.0019441047
0.00059506056
5.9852985e-07
5.6089691e-09
5.3813359e-09
5.1560352e-09
5.1847397e-09
5.1092116e-09
5.16444e-09
5.1594594e-09
5.2133493e-09
5.2487405e-09
5.3145445e-09
5.385516e-09
5.4802548e-09
5.5907447e-09
5.7250569e-09
5.8803556e-09
6.0586986e-09
6.2552103e-09
6.4636661e-09
6.6722143e-09
6.8669604e-09
7.0363223e-09
7.1750464e-09
7.2819965e-09
7.3571251e-09
7.4012912e-09
7.4189254e-09
7.4185474e-09
7.4023612e-09
7.377212e-09
7.3449004e-09
7.2881067e-09
7.2387271e-09
7.217605e-09
7.2272977e-09
7.3282567e-09
7.3858976e-09
7.4108056e-09
7.4178193e-09
7.3915609e-09
7.3721246e-09
7.3607834e-09
7.3547257e-09
7.3516473e-09
7.3501039e-09
0.0010231485
0.0021340701
0.0023610965
0.0018069677
0.00047581012
1.8432473e-07
5.5855949e-09
5.4106367e-09
5.1922928e-09
5.2229001e-09
5.1510465e-09
5.2076651e-09
5.2058712e-09
5.2616415e-09
5.3004474e-09
5.3694087e-09
5.4447488e-09
5.5442638e-09
5.6605503e-09
5.8012008e-09
5.9633894e-09
6.1484708e-09
6.3507718e-09
6.5627857e-09
6.7714209e-09
6.961984e-09
7.123565e-09
7.2531097e-09
7.3498502e-09
7.4116027e-09
7.4421298e-09
7.4503757e-09
7.4409287e-09
7.4168472e-09
7.3857731e-09
7.3450554e-09
7.2825621e-09
7.2376421e-09
7.2192355e-09
7.2459344e-09
7.3429244e-09
7.3953413e-09
7.4151144e-09
7.4185265e-09
7.3906154e-09
7.3714986e-09
7.3604373e-09
7.3545668e-09
7.3515891e-09
7.3500945e-09
0.0010201417
0.0021050013
0.0022967552
0.0016627521
0.0003748826
6.8227987e-08
5.5872664e-09
5.442044e-09
5.2307413e-09
5.2633001e-09
5.1952496e-09
5.2533462e-09
5.2548947e-09
5.3126919e-09
5.3550492e-09
5.4275264e-09
5.5074405e-09
5.6120335e-09
5.7344517e-09
5.8817791e-09
6.0511285e-09
6.2430466e-09
6.4509399e-09
6.6658737e-09
6.8734729e-09
7.0585521e-09
7.2116322e-09
7.3317554e-09
7.4162054e-09
7.4634447e-09
7.481572e-09
7.480692e-09
7.4618574e-09
7.4303197e-09
7.3940332e-09
7.344821e-09
7.2777378e-09
7.2371312e-09
7.2210023e-09
7.2655242e-09
7.3572647e-09
7.4047392e-09
7.4202544e-09
7.4186224e-09
7.3896452e-09
7.3708497e-09
7.3600832e-09
7.3544072e-09
7.3515315e-09
7.3500854e-09
0.0010171348
0.0020748156
0.0022275454
0.0015107708
0.00028340295
3.0456272e-08
5.6026282e-09
5.4755899e-09
5.2713861e-09
5.3059818e-09
5.2418656e-09
5.3015526e-09
5.3065652e-09
5.3665562e-09
5.4127479e-09
5.4888782e-09
5.573774e-09
5.6838298e-09
5.812772e-09
5.9671337e-09
6.1438921e-09
6.3426727e-09
6.5558149e-09
6.7728124e-09
6.9780529e-09
7.156396e-09
7.3005675e-09
7.4101583e-09
7.4801378e-09
7.5125427e-09
7.5202932e-09
7.5093043e-09
7.4812408e-09
7.4427236e-09
7.4017003e-09
7.3425026e-09
7.2740584e-09
7.2368434e-09
7.2233179e-09
7.2855129e-09
7.3705648e-09
7.413709e-09
7.427298e-09
7.4185471e-09
7.3886722e-09
7.3701731e-09
7.3597226e-09
7.3542487e-09
7.3514749e-09
7.3500767e-09
0.0010142442
0.0020442811
0.0021586789
0.0013541594
0.00020195446
1.6833739e-08
5.626332e-09
5.5113741e-09
5.3143342e-09
5.3510307e-09
5.2909794e-09
5.3522827e-09
5.3610046e-09
5.4233374e-09
5.4736189e-09
5.5537947e-09
5.6439242e-09
5.7597782e-09
5.8956021e-09
6.057328e-09
6.2417073e-09
6.4473114e-09
6.6652238e-09
6.8832347e-09
7.0847103e-09
7.2553068e-09
7.3902299e-09
7.486967e-09
7.5410915e-09
7.5599532e-09
7.5574691e-09
7.5361349e-09
7.4991146e-09
7.4540569e-09
7.4075226e-09
7.3392746e-09
7.2716646e-09
7.2367094e-09
7.2266386e-09
7.3042657e-09
7.3827505e-09
7.422242e-09
7.4344419e-09
7.4175975e-09
7.3875726e-09
7.3694587e-09
7.35936e-09
7.3540929e-09
7.3514198e-09
7.3500687e-09
0.0010115012
0.002012955
0.0020880892
0.0011958967
0.00012960516
1.1291815e-08
5.655707e-09
5.5493667e-09
5.3595665e-09
5.3983549e-09
5.3425719e-09
5.4056824e-09
5.4182936e-09
5.4832341e-09
5.5378924e-09
5.6223218e-09
5.7181365e-09
5.8402084e-09
5.9833143e-09
6.1527422e-09
6.3449071e-09
6.5571674e-09
6.7791465e-09
6.9968799e-09
7.1931487e-09
7.3552833e-09
7.4798285e-09
7.5612051e-09
7.5989625e-09
7.6062719e-09
7.592586e-09
7.5610245e-09
7.5155071e-09
7.4644504e-09
7.4097136e-09
7.335112e-09
7.2707599e-09
7.2384135e-09
7.2318993e-09
7.3221688e-09
7.393871e-09
7.4294709e-09
7.4403704e-09
7.4157318e-09
7.3863112e-09
7.368725e-09
7.3590012e-09
7.3539411e-09
7.3513665e-09
7.3500614e-09
0.0010088921
0.001980565
0.0020155041
0.0010460363
7.0200956e-05
8.8124299e-09
5.6887088e-09
5.5895696e-09
5.4070493e-09
5.4480784e-09
5.3968406e-09
5.4618825e-09
5.4786648e-09
5.5463898e-09
5.6057326e-09
5.6948469e-09
5.7966117e-09
5.9252639e-09
6.0760185e-09
6.2534523e-09
6.4535149e-09
6.6721324e-09
6.8972691e-09
7.1132774e-09
7.3030397e-09
7.4562245e-09
7.5679766e-09
7.6321677e-09
7.6547622e-09
7.6506857e-09
7.6255514e-09
7.5839166e-09
7.5304436e-09
7.4741488e-09
7.4104191e-09
7.3304606e-09
7.2706631e-09
7.242397e-09
7.2402676e-09
7.3392457e-09
7.4039959e-09
7.4351189e-09
7.4442279e-09
7.4135768e-09
7.3849834e-09
7.3679928e-09
7.3586503e-09
7.3537937e-09
7.351315e-09
7.350055e-09
0.0010058694
0.0019438298
0.001938972
0.00090477864
3.0169303e-05
7.6282281e-09
5.7249583e-09
5.6322455e-09
5.4571262e-09
5.5005404e-09
5.4540015e-09
5.521149e-09
5.5422867e-09
5.6130015e-09
5.6773977e-09
5.7714268e-09
5.8796336e-09
6.0153154e-09
6.1741249e-09
6.3598578e-09
6.5678328e-09
6.7923007e-09
7.0194103e-09
7.2321221e-09
7.4142774e-09
7.5575912e-09
7.6535217e-09
7.6995729e-09
7.7091723e-09
7.6926572e-09
7.6562098e-09
7.604771e-09
7.5438922e-09
7.4829837e-09
7.4103058e-09
7.3260113e-09
7.2712017e-09
7.247328e-09
7.2537343e-09
7.3552906e-09
7.413394e-09
7.4394605e-09
7.4458825e-09
7.4113553e-09
7.3836477e-09
7.3672732e-09
7.3583089e-09
7.3536512e-09
7.3512656e-09
7.3500495e-09
0.0010024562
0.0019033549
0.0018574812
0.00077306319
1.0412677e-05
7.0481963e-09
5.7643833e-09
5.677709e-09
5.5100195e-09
5.5559097e-09
5.5142555e-09
5.583596e-09
5.6093802e-09
5.6833212e-09
5.7530594e-09
5.8524713e-09
5.9674184e-09
6.1105269e-09
6.2777624e-09
6.4720366e-09
6.6878306e-09
6.9174343e-09
7.1451211e-09
7.3530101e-09
7.526747e-09
7.6579188e-09
7.7356432e-09
7.7643801e-09
7.7613633e-09
7.7320962e-09
7.6844888e-09
7.6236487e-09
7.5559163e-09
7.4897271e-09
7.4080758e-09
7.3224953e-09
7.2733354e-09
7.2528373e-09
7.2726573e-09
7.3707483e-09
7.4225351e-09
7.4433012e-09
7.4463353e-09
7.4091436e-09
7.3823292e-09
7.3665702e-09
7.3579774e-09
7.3535136e-09
7.3512183e-09
7.3500449e-09
0.00099839
0.0018583847
0.0017690314
0.00065129198
3.1304617e-06
6.7667193e-09
5.8068279e-09
5.7259037e-09
5.5657641e-09
5.6142819e-09
5.5777178e-09
5.6494512e-09
5.6800915e-09
5.7575942e-09
5.8329839e-09
5.938071e-09
6.0603045e-09
6.2113207e-09
6.3873756e-09
6.5903722e-09
6.8136974e-09
7.0474419e-09
7.2741023e-09
7.4757459e-09
7.6402469e-09
7.7557697e-09
7.8137139e-09
7.8274703e-09
7.810773e-09
7.7688458e-09
7.7103134e-09
7.6406363e-09
7.5667945e-09
7.4923331e-09
7.4036003e-09
7.319878e-09
7.2761105e-09
7.2597874e-09
7.2953854e-09
7.3862199e-09
7.4319989e-09
7.4478606e-09
7.4462128e-09
7.4070025e-09
7.3810365e-09
7.3658833e-09
7.3576558e-09
7.3533813e-09
7.3511733e-09
7.3500414e-09
0.00099362374
0.0018084625
0.0016647992
0.00054020203
9.0824043e-07
6.6384177e-09
5.8524462e-09
5.7771078e-09
5.6245391e-09
5.6758484e-09
5.6445854e-09
5.7188519e-09
5.7546107e-09
5.8359931e-09
5.9173484e-09
6.0286606e-09
6.1585356e-09
6.3178984e-09
6.5031124e-09
6.7149231e-09
6.94529e-09
7.1819205e-09
7.4058799e-09
7.6000824e-09
7.7533882e-09
7.8502e-09
7.8885119e-09
7.8880845e-09
7.8572311e-09
7.8028283e-09
7.7336618e-09
7.6558044e-09
7.576878e-09
7.4932051e-09
7.3977168e-09
7.3179801e-09
7.2790468e-09
7.2669618e-09
7.3181234e-09
7.4012112e-09
7.4416174e-09
7.4547083e-09
7.44591e-09
7.4049528e-09
7.379765e-09
7.3652108e-09
7.3573449e-09
7.3532546e-09
7.3511307e-09
7.350039e-09
0.0009883475
0.0017556134
0.0015493961
0.00044011342
2.7992444e-07
6.5898473e-09
5.9012462e-09
5.8313214e-09
5.6865076e-09
5.7407072e-09
5.715019e-09
5.791935e-09
5.8331272e-09
5.9187181e-09
6.0064798e-09
6.1243678e-09
6.2625182e-09
6.4307233e-09
6.6254262e-09
6.8459892e-09
7.082636e-09
7.3205964e-09
7.5401747e-09
7.7258911e-09
7.8647076e-09
7.9403289e-09
7.9608985e-09
7.9456394e-09
7.9006022e-09
7.8339873e-09
7.7545662e-09
7.669151e-09
7.5856356e-09
7.4931413e-09
7.3911792e-09
7.3173219e-09
7.2823766e-09
7.2745787e-09
7.3410519e-09
7.4152905e-09
7.4508488e-09
7.4617949e-09
7.4434421e-09
7.4029041e-09
7.3784886e-09
7.3645532e-09
7.3570461e-09
7.3531339e-09
7.3510905e-09
7.3500377e-09
0.00098274019
0.0017006251
0.0014240358
0.00035063691
1.0064973e-07
6.5842046e-09
5.9532649e-09
5.8888887e-09
5.7517346e-09
5.8090108e-09
5.7890617e-09
5.8688922e-09
5.9157884e-09
6.0060802e-09
6.1006595e-09
6.2258246e-09
6.3725893e-09
6.5500481e-09
6.7544637e-09
6.9835421e-09
7.2254167e-09
7.462996e-09
7.6766128e-09
7.8523667e-09
7.972758e-09
8.0262982e-09
8.0307155e-09
7.999725e-09
7.9407929e-09
7.8622997e-09
7.7731488e-09
7.6807865e-09
7.59063e-09
7.4912662e-09
7.3847281e-09
7.317232e-09
7.286837e-09
7.2827748e-09
7.3620791e-09
7.4278561e-09
7.4587501e-09
7.4676971e-09
7.439835e-09
7.400679e-09
7.377216e-09
7.3639177e-09
7.3567612e-09
7.3530193e-09
7.351053e-09
7.3500377e-09
0.00097679854
0.0016432508
0.0012970386
0.0002715346
4.3934895e-08
6.6010932e-09
6.0083707e-09
5.9495734e-09
5.8203014e-09
5.8808165e-09
5.8669618e-09
5.9499632e-09
6.003005e-09
6.0984397e-09
6.2003968e-09
6.3331665e-09
6.4891952e-09
6.6763581e-09
6.8906201e-09
7.1277089e-09
7.3734242e-09
7.6088008e-09
7.8150264e-09
7.9779387e-09
8.0765479e-09
8.1089566e-09
8.0972244e-09
8.0502648e-09
7.977745e-09
7.8877621e-09
7.7895465e-09
7.6910962e-09
7.592527e-09
7.4864848e-09
7.3792099e-09
7.31745e-09
7.2918886e-09
7.2928235e-09
7.3808399e-09
7.4384836e-09
7.4647357e-09
7.4715462e-09
7.4359046e-09
7.3984149e-09
7.3759774e-09
7.3633104e-09
7.3564908e-09
7.352911e-09
7.351018e-09
7.350039e-09
0.0009706187
0.0015807085
0.0011734625
0.00019967397
2.3179072e-08
6.6306105e-09
6.0664474e-09
6.0135971e-09
5.8924052e-09
5.9564147e-09
5.9490339e-09
6.0355121e-09
6.0951424e-09
6.196191e-09
6.3059598e-09
6.4470669e-09
6.6126922e-09
6.809905e-09
7.033982e-09
7.2782871e-09
7.5261851e-09
7.7575445e-09
7.9550512e-09
8.1008042e-09
8.175337e-09
8.1889506e-09
8.1597165e-09
8.0971206e-09
8.0114148e-09
7.910394e-09
7.8038492e-09
7.7002896e-09
7.592926e-09
7.4792831e-09
7.374797e-09
7.3189859e-09
7.2968279e-09
7.3069268e-09
7.3969191e-09
7.4472836e-09
7.4688557e-09
7.473171e-09
7.4320083e-09
7.3962002e-09
7.3747915e-09
7.3627337e-09
7.3562347e-09
7.3528087e-09
7.3509855e-09
7.3500418e-09
0.00096517739
0.0015210221
0.0010482217
0.00013421622
1.4745998e-08
6.6679943e-09
6.1281193e-09
6.0813258e-09
5.9684247e-09
6.0362112e-09
6.0357004e-09
6.1260002e-09
6.1926011e-09
6.2997688e-09
6.4179157e-09
6.5677074e-09
6.7435608e-09
6.9511461e-09
7.1847913e-09
7.4351599e-09
7.6833546e-09
7.9088716e-09
8.0953783e-09
8.2196751e-09
8.2698735e-09
8.2653561e-09
8.2181579e-09
8.1402577e-09
8.0418032e-09
7.9302734e-09
7.8161139e-09
7.7073897e-09
7.5925699e-09
7.4703918e-09
7.3711864e-09
7.3214542e-09
7.3024618e-09
7.3253055e-09
7.4110833e-09
7.4549689e-09
7.4720302e-09
7.4735461e-09
7.4282668e-09
7.3940776e-09
7.3736657e-09
7.3621871e-09
7.355992e-09
7.3527122e-09
7.3509561e-09
7.3500462e-09
0.00096038739
0.0014624529
0.00092398283
7.7730052e-05
1.0955014e-08
6.7100354e-09
6.1933763e-09
6.1531022e-09
6.0488229e-09
6.1206523e-09
6.1274495e-09
6.2218042e-09
6.2958319e-09
6.4095636e-09
6.5365595e-09
6.6957847e-09
6.8821812e-09
7.1003022e-09
7.3429852e-09
7.5979412e-09
7.8444673e-09
8.0624223e-09
8.2341215e-09
8.333236e-09
8.3610532e-09
8.3374129e-09
8.2723618e-09
8.1796314e-09
8.0689267e-09
7.9475484e-09
7.8265703e-09
7.710184e-09
7.5898018e-09
7.4607128e-09
7.3682842e-09
7.324711e-09
7.3097069e-09
7.3464337e-09
7.4246923e-09
7.4626938e-09
7.4755103e-09
7.473284e-09
7.4247596e-09
7.3920666e-09
7.3725988e-09
7.3616685e-09
7.355762e-09
7.3526213e-09
7.3509293e-09
7.3500524e-09
0.00095613932
0.0014009698
0.00080283711
3.6450576e-05
9.143966e-09
6.7561996e-09
6.2631709e-09
6.2296327e-09
6.1341038e-09
6.2102029e-09
6.2245717e-09
6.3233394e-09
6.4051235e-09
6.5260559e-09
6.6624946e-09
6.8315677e-09
7.0290553e-09
7.2577261e-09
7.508562e-09
7.7662937e-09
8.0091142e-09
8.2176938e-09
8.3692869e-09
8.441478e-09
8.4485669e-09
8.4047469e-09
8.3223026e-09
8.2152698e-09
8.0928612e-09
7.9624038e-09
7.8355841e-09
7.7110844e-09
7.5844967e-09
7.4514075e-09
7.3671163e-09
7.3286584e-09
7.318505e-09
7.3680939e-09
7.4379291e-09
7.4705488e-09
7.4806921e-09
7.472337e-09
7.4215287e-09
7.3901644e-09
7.3715832e-09
7.3611749e-09
7.3555442e-09
7.3525361e-09
7.3509054e-09
7.3500603e-09
0.00095276065
0.0013366476
0.00068715756
1.3655001e-05
8.2557808e-09
6.8076835e-09
6.3375599e-09
6.311031e-09
6.2245397e-09
6.3049764e-09
6.3274346e-09
6.4308527e-09
6.521036e-09
6.6496763e-09
6.7961343e-09
6.9757753e-09
7.1845646e-09
7.4235087e-09
7.6812632e-09
7.9397308e-09
8.1767793e-09
8.3727528e-09
8.4995127e-09
8.5451298e-09
8.5314781e-09
8.467214e-09
8.3679207e-09
8.2471945e-09
8.1137332e-09
7.9750567e-09
7.8427794e-09
7.7110386e-09
7.5759486e-09
7.4434283e-09
7.3669792e-09
7.3334699e-09
7.328144e-09
7.3896089e-09
7.4505848e-09
7.4784683e-09
7.4864089e-09
7.4688243e-09
7.4186012e-09
7.3883383e-09
7.3706068e-09
7.360705e-09
7.3553388e-09
7.3524567e-09
7.3508844e-09
7.3500701e-09
0.00095060464
0.0012707198
0.00057865068
4.3409479e-06
7.8273278e-09
6.8683204e-09
6.4168067e-09
6.3973708e-09
6.3201976e-09
6.4053258e-09
6.4362921e-09
6.5449327e-09
6.6439141e-09
6.7810518e-09
6.9381411e-09
7.1287781e-09
7.3491408e-09
7.5977863e-09
7.8607811e-09
8.1178048e-09
8.3469602e-09
8.5255019e-09
8.6235675e-09
8.6451077e-09
8.6088929e-09
8.5247354e-09
8.4092656e-09
8.2754989e-09
8.1317501e-09
7.9858238e-09
7.8459995e-09
7.7089318e-09
7.5649233e-09
7.4368246e-09
7.3675213e-09
7.3396178e-09
7.3386353e-09
7.409489e-09
7.4619252e-09
7.485813e-09
7.492043e-09
7.4640518e-09
7.4155468e-09
7.3865348e-09
7.3696681e-09
7.3602602e-09
7.3551463e-09
7.3523832e-09
7.3508663e-09
7.3500819e-09
0.00094957029
0.0012045258
0.00047826189
1.297828e-06
7.6320343e-09
6.9335995e-09
6.5009335e-09
6.4889345e-09
6.4215191e-09
6.5116246e-09
6.5517703e-09
6.665996e-09
6.7745245e-09
6.9207206e-09
7.0890418e-09
7.29125e-09
7.523066e-09
7.78043e-09
8.0466803e-09
8.2999368e-09
8.5186174e-09
8.6737948e-09
8.7419777e-09
8.7401745e-09
8.6807187e-09
8.5772523e-09
8.4463709e-09
8.3002845e-09
8.1471145e-09
7.9949556e-09
7.8471586e-09
7.7045631e-09
7.5522913e-09
7.4315506e-09
7.3696875e-09
7.3458344e-09
7.3517718e-09
7.4269593e-09
7.4715472e-09
7.4915507e-09
7.4958158e-09
7.4584221e-09
7.4124206e-09
7.3847818e-09
7.3687766e-09
7.3598426e-09
7.3549667e-09
7.3523154e-09
7.3508513e-09
7.3500961e-09
0.00094850566
0.0011257911
0.0003863779
4.0550802e-07
7.5564615e-09
7.0036292e-09
6.590445e-09
6.5862339e-09
6.5290153e-09
6.6245218e-09
6.6743889e-09
6.7948137e-09
6.9133464e-09
7.0694057e-09
7.2495255e-09
7.4635894e-09
7.7065909e-09
7.9712557e-09
8.2384821e-09
8.4854913e-09
8.6894261e-09
8.8159458e-09
8.8556565e-09
8.8294186e-09
8.7467786e-09
8.62481e-09
8.4793565e-09
8.3217431e-09
8.1600387e-09
8.0017175e-09
7.8472441e-09
7.6978231e-09
7.5389777e-09
7.4273558e-09
7.3729148e-09
7.3522819e-09
7.368198e-09
7.4413321e-09
7.4794815e-09
7.4954208e-09
7.4973837e-09
7.4528726e-09
7.4093555e-09
7.3831133e-09
7.3679395e-09
7.3594528e-09
7.3547997e-09
7.3522532e-09
7.3508395e-09
7.3501126e-09
0.00094773566
0.0010432263
0.00030447601
1.4552302e-07
7.5442968e-09
7.079283e-09
6.685963e-09
6.6898554e-09
6.6433527e-09
6.7445531e-09
6.8048974e-09
6.9319237e-09
7.0612101e-09
7.2277307e-09
7.4201792e-09
7.6463557e-09
7.8997706e-09
8.1698955e-09
8.4356398e-09
8.673818e-09
8.8569774e-09
8.9512377e-09
8.9644929e-09
8.9121483e-09
8.8070108e-09
8.6674582e-09
8.5083327e-09
8.3400828e-09
8.1707937e-09
8.0044866e-09
7.8459539e-09
7.6883417e-09
7.5261299e-09
7.4241552e-09
7.3769548e-09
7.3594337e-09
7.3866139e-09
7.4538451e-09
7.4863314e-09
7.4981404e-09
7.4976696e-09
7.4475795e-09
7.4064321e-09
7.3815479e-09
7.3671593e-09
7.3590901e-09
7.3546447e-09
7.3521966e-09
7.3508311e-09
7.3501318e-09
0.00094656421
0.00095216234
0.00023259241
6.4347375e-08
7.5673895e-09
7.1613147e-09
6.7879986e-09
6.8004345e-09
6.7651402e-09
6.8724547e-09
6.9437916e-09
7.0781379e-09
7.2186957e-09
7.3964543e-09
7.6016802e-09
7.8398669e-09
8.1025417e-09
8.3758397e-09
8.6373637e-09
8.8631145e-09
9.0189395e-09
9.080294e-09