/*--------------------------------*- C++ -*----------------------------------*\
  =========                 |
  \\      /  F ield         | OpenFOAM: The Open Source CFD Toolbox
   \\    /   O peration     | Website:  https://openfoam.org
    \\  /    A nd           | Version:  8
     \\/     M anipulation  |
\*---------------------------------------------------------------------------*/
FoamFile
{
    version     2.0;
    format      ascii;
    class       volScalarField;
    location    "0.0300106";
    object      nuTilda;
}
// * * * * * * * * * * * * * * * * * * * * * * * * * * * * * * * * * * * * * //

dimensions      [0 2 -1 0 0 0 0];

internalField   nonuniform List<scalar> 
20000
(
0.0010967467
0.0027268553
0.003650109
0.0039802063
0.0035714803
0.0020988378
0.00032690512
1.3977973e-05
1.0114213e-05
1.01031e-05
1.0042129e-05
1.0052687e-05
1.001946e-05
1.0023356e-05
1.0013052e-05
1.0011844e-05
1.0007475e-05
1.0006064e-05
1.0004198e-05
1.0003508e-05
1.0003162e-05
1.0003134e-05
1.0003293e-05
1.000349e-05
1.0003517e-05
1.0003097e-05
1.0002666e-05
1.0002627e-05
1.0002664e-05
1.0002478e-05
1.0002295e-05
1.0002151e-05
1.0002004e-05
1.0001937e-05
1.0001962e-05
1.0002138e-05
1.0002356e-05
1.0002634e-05
1.0002521e-05
1.0001918e-05
1.0001726e-05
1.0001168e-05
1.0000539e-05
1.0000259e-05
1.0000159e-05
1.0000044e-05
1.0000016e-05
1.0000009e-05
1.0000006e-05
1.0000005e-05
0.0010814306
0.0026803626
0.0035793862
0.00388231
0.0034444209
0.0019062221
0.00026158921
1.2542456e-05
1.0110849e-05
1.0102586e-05
1.0041614e-05
1.0052568e-05
1.00192e-05
1.0023185e-05
1.001291e-05
1.0011725e-05
1.0007412e-05
1.0006013e-05
1.000418e-05
1.0003492e-05
1.0003147e-05
1.0003128e-05
1.0003296e-05
1.0003494e-05
1.0003521e-05
1.0003098e-05
1.0002641e-05
1.0002601e-05
1.0002635e-05
1.0002438e-05
1.0002255e-05
1.0002112e-05
1.0001956e-05
1.0001887e-05
1.0001908e-05
1.000207e-05
1.0002282e-05
1.0002529e-05
1.0002487e-05
1.000187e-05
1.0001714e-05
1.0001062e-05
1.0000544e-05
1.0000233e-05
1.000015e-05
1.0000045e-05
1.0000012e-05
1.0000006e-05
1.0000004e-05
1.0000005e-05
0.0010803708
0.0026541917
0.0035187218
0.0037835156
0.0033045538
0.0016917605
0.00020015927
1.1586826e-05
1.0108097e-05
1.0101515e-05
1.0041106e-05
1.0052234e-05
1.0018931e-05
1.0022925e-05
1.0012751e-05
1.0011567e-05
1.000732e-05
1.0005936e-05
1.0004142e-05
1.0003467e-05
1.000313e-05
1.000312e-05
1.0003303e-05
1.0003508e-05
1.0003538e-05
1.0003115e-05
1.0002637e-05
1.0002584e-05
1.0002618e-05
1.000242e-05
1.0002247e-05
1.0002112e-05
1.0001954e-05
1.0001877e-05
1.000189e-05
1.0002048e-05
1.0002253e-05
1.0002469e-05
1.0002451e-05
1.000185e-05
1.0001711e-05
1.0000954e-05
1.0000546e-05
1.0000226e-05
1.0000148e-05
1.0000049e-05
1.0000011e-05
1.0000005e-05
1.0000004e-05
1.0000006e-05
0.0010772978
0.0026250509
0.0034565026
0.0036842344
0.0031677277
0.0014935685
0.00015186542
1.1017443e-05
1.0105772e-05
1.0100334e-05
1.0040356e-05
1.0050828e-05
1.00186e-05
1.0022669e-05
1.0012599e-05
1.0011409e-05
1.0007233e-05
1.0005859e-05
1.0004107e-05
1.0003442e-05
1.0003111e-05
1.0003114e-05
1.0003305e-05
1.0003516e-05
1.000355e-05
1.0003124e-05
1.0002631e-05
1.0002574e-05
1.0002606e-05
1.0002409e-05
1.0002246e-05
1.0002116e-05
1.0001957e-05
1.0001872e-05
1.0001874e-05
1.0002011e-05
1.0002218e-05
1.0002402e-05
1.0002429e-05
1.0001827e-05
1.0001683e-05
1.0000812e-05
1.000054e-05
1.0000229e-05
1.0000116e-05
1.0000044e-05
1.0000012e-05
1.0000006e-05
1.0000004e-05
1.0000006e-05
0.0010743771
0.0025964844
0.0033945847
0.0035834055
0.0030308639
0.0013055639
0.00011376137
1.0682797e-05
1.0104548e-05
1.0098201e-05
1.0037865e-05
1.0046973e-05
1.0018311e-05
1.00224e-05
1.001245e-05
1.0011246e-05
1.0007144e-05
1.0005779e-05
1.000407e-05
1.0003416e-05
1.0003091e-05
1.0003106e-05
1.0003306e-05
1.0003523e-05
1.0003561e-05
1.0003134e-05
1.0002627e-05
1.0002561e-05
1.000259e-05
1.0002395e-05
1.0002239e-05
1.0002116e-05
1.0001956e-05
1.0001865e-05
1.0001862e-05
1.0001981e-05
1.0002189e-05
1.0002342e-05
1.0002389e-05
1.0001799e-05
1.0001655e-05
1.0000804e-05
1.0000534e-05
1.000023e-05
1.0000098e-05
1.0000037e-05
1.0000012e-05
1.0000006e-05
1.0000003e-05
1.0000006e-05
0.0010715191
0.0025687619
0.0033339342
0.0034816569
0.0028915132
0.0011283089
8.4203342e-05
1.0490045e-05
1.0100629e-05
1.0094112e-05
1.0034026e-05
1.0044357e-05
1.0018176e-05
1.0022123e-05
1.0012306e-05
1.0011082e-05
1.0007057e-05
1.0005698e-05
1.0004032e-05
1.000339e-05
1.0003071e-05
1.0003097e-05
1.0003305e-05
1.0003529e-05
1.000357e-05
1.0003143e-05
1.0002622e-05
1.0002551e-05
1.0002576e-05
1.0002383e-05
1.0002234e-05
1.0002116e-05
1.0001959e-05
1.000186e-05
1.0001852e-05
1.000195e-05
1.0002161e-05
1.0002266e-05
1.0002279e-05
1.0001787e-05
1.0001598e-05
1.0000709e-05
1.0000517e-05
1.0000232e-05
1.0000092e-05
1.0000029e-05
1.0000012e-05
1.0000006e-05
1.0000003e-05
1.0000006e-05
0.0010687141
0.0025413817
0.0032747309
0.0033843566
0.0027477516
0.00096312535
6.1907303e-05
1.0380293e-05
1.0100068e-05
1.0090882e-05
1.0032121e-05
1.0041327e-05
1.0018039e-05
1.002184e-05
1.0012168e-05
1.0010919e-05
1.000697e-05
1.0005616e-05
1.0003992e-05
1.0003363e-05
1.0003051e-05
1.0003088e-05
1.0003303e-05
1.0003533e-05
1.0003577e-05
1.000315e-05
1.0002617e-05
1.0002539e-05
1.0002561e-05
1.0002372e-05
1.000223e-05
1.0002115e-05
1.0001961e-05
1.0001856e-05
1.0001843e-05
1.0001923e-05
1.0002136e-05
1.0002194e-05
1.0002184e-05
1.000175e-05
1.0001582e-05
1.0000694e-05
1.0000452e-05
1.0000235e-05
1.0000095e-05
1.0000024e-05
1.0000012e-05
1.0000005e-05
1.0000003e-05
1.0000006e-05
0.0010657738
0.0025142949
0.0032168328
0.0032844871
0.0025972528
0.00081138707
4.553397e-05
1.0316201e-05
1.0097772e-05
1.0089566e-05
1.0031585e-05
1.0041436e-05
1.0017792e-05
1.002155e-05
1.0012034e-05
1.0010757e-05
1.0006884e-05
1.0005532e-05
1.0003951e-05
1.0003335e-05
1.0003031e-05
1.0003077e-05
1.0003301e-05
1.0003536e-05
1.0003583e-05
1.0003157e-05
1.0002612e-05
1.0002528e-05
1.0002547e-05
1.0002361e-05
1.0002227e-05
1.0002113e-05
1.0001962e-05
1.0001853e-05
1.0001836e-05
1.0001899e-05
1.0002109e-05
1.0002163e-05
1.0002151e-05
1.0001697e-05
1.0001464e-05
1.0000688e-05
1.0000422e-05
1.0000226e-05
1.0000097e-05
1.0000025e-05
1.0000012e-05
1.0000005e-05
1.0000003e-05
1.0000006e-05
0.001062563
0.002486409
0.0031567399
0.0031831088
0.0024404157
0.00067541055
3.3839987e-05
1.0278564e-05
1.0095525e-05
1.008797e-05
1.0031052e-05
1.0040708e-05
1.0017616e-05
1.0021253e-05
1.0011906e-05
1.0010594e-05
1.0006799e-05
1.0005447e-05
1.0003909e-05
1.0003306e-05
1.0003011e-05
1.0003067e-05
1.0003298e-05
1.0003537e-05
1.0003587e-05
1.0003161e-05
1.0002606e-05
1.0002516e-05
1.0002533e-05
1.0002351e-05
1.0002225e-05
1.0002112e-05
1.0001963e-05
1.0001851e-05
1.0001829e-05
1.000188e-05
1.0002082e-05
1.0002117e-05
1.00021e-05
1.0001633e-05
1.000129e-05
1.0000685e-05
1.0000408e-05
1.0000207e-05
1.0000099e-05
1.0000025e-05
1.0000012e-05
1.0000005e-05
1.0000003e-05
1.0000006e-05
0.0010593865
0.0024588748
0.0030962405
0.0030813972
0.0022762599
0.00055891463
2.567894e-05
1.02554e-05
1.0093269e-05
1.0086323e-05
1.0030493e-05
1.004008e-05
1.0017443e-05
1.0020949e-05
1.0011784e-05
1.001043e-05
1.0006714e-05
1.0005361e-05
1.0003866e-05
1.0003277e-05
1.0002991e-05
1.0003057e-05
1.0003294e-05
1.0003537e-05
1.000359e-05
1.0003165e-05
1.00026e-05
1.0002504e-05
1.0002519e-05
1.0002341e-05
1.0002223e-05
1.0002111e-05
1.0001963e-05
1.0001849e-05
1.0001823e-05
1.0001864e-05
1.0002049e-05
1.0002017e-05
1.0002061e-05
1.0001595e-05
1.0001111e-05
1.0000677e-05
1.0000405e-05
1.0000212e-05
1.0000101e-05
1.0000026e-05
1.0000012e-05
1.0000005e-05
1.0000003e-05
1.0000006e-05
0.0010562664
0.0024312697
0.0030358891
0.0029797948
0.002105622
0.00045644795
2.0056284e-05
1.0240157e-05
1.0091006e-05
1.0084614e-05
1.0029939e-05
1.0039402e-05
1.0017288e-05
1.0020639e-05
1.0011667e-05
1.0010267e-05
1.000663e-05
1.0005275e-05
1.0003823e-05
1.0003248e-05
1.0002973e-05
1.0003047e-05
1.0003289e-05
1.0003536e-05
1.0003591e-05
1.0003166e-05
1.0002594e-05
1.0002492e-05
1.0002505e-05
1.0002331e-05
1.0002223e-05
1.0002112e-05
1.0001961e-05
1.0001847e-05
1.0001818e-05
1.000185e-05
1.0002022e-05
1.0001892e-05
1.000202e-05
1.0001592e-05
1.0000963e-05
1.0000658e-05
1.0000408e-05
1.0000209e-05
1.0000104e-05
1.0000026e-05
1.0000012e-05
1.0000005e-05
1.0000003e-05
1.0000006e-05
0.0010532654
0.002403409
0.0029747836
0.0028777286
0.0019287157
0.00036526154
1.6281687e-05
1.022926e-05
1.0088733e-05
1.008285e-05
1.0029383e-05
1.0038711e-05
1.0017145e-05
1.0020324e-05
1.0011556e-05
1.0010103e-05
1.0006547e-05
1.0005188e-05
1.0003779e-05
1.0003219e-05
1.0002955e-05
1.0003039e-05
1.0003285e-05
1.0003533e-05
1.000359e-05
1.0003166e-05
1.0002587e-05
1.000248e-05
1.000249e-05
1.000232e-05
1.0002222e-05
1.0002114e-05
1.0001958e-05
1.0001844e-05
1.0001812e-05
1.0001836e-05
1.0002001e-05
1.0001797e-05
1.0001986e-05
1.0001611e-05
1.0000878e-05
1.0000645e-05
1.0000415e-05
1.0000207e-05
1.0000103e-05
1.0000026e-05
1.0000012e-05
1.0000005e-05
1.0000003e-05
1.0000006e-05
0.0010503687
0.0023748456
0.0029116363
0.0027683551
0.001747528
0.00028655949
1.3848605e-05
1.02207e-05
1.0086449e-05
1.0081032e-05
1.002883e-05
1.0038e-05
1.0017017e-05
1.0020004e-05
1.001145e-05
1.000994e-05
1.0006464e-05
1.0005102e-05
1.0003735e-05
1.000319e-05
1.0002938e-05
1.0003031e-05
1.000328e-05
1.000353e-05
1.0003587e-05
1.0003165e-05
1.000258e-05
1.0002467e-05
1.0002476e-05
1.000231e-05
1.0002222e-05
1.0002117e-05
1.0001955e-05
1.000184e-05
1.0001806e-05
1.0001823e-05
1.0001981e-05
1.0001772e-05
1.0001977e-05
1.0001631e-05
1.0000863e-05
1.0000649e-05
1.0000426e-05
1.0000206e-05
1.0000096e-05
1.0000027e-05
1.0000012e-05
1.0000005e-05
1.0000003e-05
1.0000006e-05
0.0010474262
0.0023454762
0.0028466683
0.0026587375
0.0015656923
0.00022060533
1.2341239e-05
1.0213377e-05
1.0084157e-05
1.0079177e-05
1.0028278e-05
1.0037277e-05
1.0016901e-05
1.0019681e-05
1.0011349e-05
1.0009779e-05
1.0006382e-05
1.0005017e-05
1.0003691e-05
1.0003162e-05
1.0002921e-05
1.0003025e-05
1.0003274e-05
1.0003525e-05
1.0003583e-05
1.0003161e-05
1.0002572e-05
1.0002453e-05
1.0002461e-05
1.0002299e-05
1.000222e-05
1.0002119e-05
1.0001952e-05
1.0001836e-05
1.0001802e-05
1.0001807e-05
1.0001941e-05
1.0001741e-05
1.0001934e-05
1.0001635e-05
1.000086e-05
1.0000641e-05
1.0000418e-05
1.000021e-05
1.0000076e-05
1.0000027e-05
1.0000012e-05
1.0000005e-05
1.0000003e-05
1.0000006e-05
0.0010443994
0.0023153431
0.0027774359
0.0025490626
0.0013856409
0.00016652592
1.1434158e-05
1.0206567e-05
1.0081858e-05
1.0077284e-05
1.002773e-05
1.0036539e-05
1.0016797e-05
1.0019355e-05
1.0011253e-05
1.0009619e-05
1.0006302e-05
1.0004932e-05
1.0003648e-05
1.0003134e-05
1.0002906e-05
1.0003021e-05
1.0003269e-05
1.0003519e-05
1.0003576e-05
1.0003156e-05
1.0002564e-05
1.0002439e-05
1.0002445e-05
1.0002287e-05
1.0002217e-05
1.0002121e-05
1.0001949e-05
1.0001832e-05
1.0001796e-05
1.0001786e-05
1.0001829e-05
1.000171e-05
1.000187e-05
1.0001633e-05
1.0000852e-05
1.0000608e-05
1.0000397e-05
1.0000215e-05
1.000005e-05
1.0000027e-05
1.0000012e-05
1.0000005e-05
1.0000002e-05
1.0000005e-05
0.0010414256
0.0022859525
0.0027111494
0.0024374941
0.0012094933
0.00012321632
1.0905377e-05
1.0199822e-05
1.0079553e-05
1.0075355e-05
1.0027186e-05
1.0035789e-05
1.0016705e-05
1.0019027e-05
1.0011161e-05
1.0009461e-05
1.0006222e-05
1.0004848e-05
1.0003605e-05
1.0003108e-05
1.0002892e-05
1.0003017e-05
1.0003264e-05
1.0003511e-05
1.0003568e-05
1.0003149e-05
1.0002555e-05
1.0002425e-05
1.0002429e-05
1.0002276e-05
1.0002212e-05
1.0002121e-05
1.0001946e-05
1.0001829e-05
1.0001792e-05
1.0001776e-05
1.0001752e-05
1.0001687e-05
1.0001759e-05
1.0001618e-05
1.0000845e-05
1.0000609e-05
1.0000383e-05
1.0000221e-05
1.0000046e-05
1.0000026e-05
1.0000011e-05
1.0000005e-05
1.0000002e-05
1.0000005e-05
0.0010383236
0.0022561127
0.0026441551
0.0023218231
0.0010403426
8.9629489e-05
1.0606468e-05
1.0193092e-05
1.0077247e-05
1.0073401e-05
1.0026647e-05
1.0035031e-05
1.0016622e-05
1.0018697e-05
1.0011074e-05
1.0009305e-05
1.0006143e-05
1.0004766e-05
1.0003563e-05
1.0003082e-05
1.0002879e-05
1.0003016e-05
1.0003258e-05
1.0003503e-05
1.0003559e-05
1.000314e-05
1.0002545e-05
1.0002411e-05
1.0002413e-05
1.0002263e-05
1.0002205e-05
1.000212e-05
1.0001944e-05
1.0001826e-05
1.0001791e-05
1.0001772e-05
1.0001761e-05
1.0001663e-05
1.0001626e-05
1.0001588e-05
1.0000835e-05
1.0000613e-05
1.0000383e-05
1.0000224e-05
1.0000046e-05
1.0000026e-05
1.0000011e-05
1.0000004e-05
1.0000002e-05
1.0000005e-05
0.0010350903
0.0022256637
0.0025752757
0.0022004865
0.00088078504
6.4309651e-05
1.0440909e-05
1.0186928e-05
1.0074941e-05
1.007142e-05
1.0026116e-05
1.0034264e-05
1.0016549e-05
1.0018366e-05
1.001099e-05
1.0009151e-05
1.0006066e-05
1.0004685e-05
1.0003521e-05
1.0003058e-05
1.0002868e-05
1.0003016e-05
1.0003253e-05
1.0003493e-05
1.0003547e-05
1.000313e-05
1.0002535e-05
1.0002396e-05
1.0002397e-05
1.000225e-05
1.0002196e-05
1.0002116e-05
1.0001942e-05
1.0001824e-05
1.0001789e-05
1.0001768e-05
1.0001755e-05
1.0001645e-05
1.0001521e-05
1.0001526e-05
1.0000816e-05
1.0000617e-05
1.000038e-05
1.0000221e-05
1.0000046e-05
1.0000025e-05
1.0000011e-05
1.0000004e-05
1.0000002e-05
1.0000005e-05
0.0010317979
0.0021949269
0.0025049043
0.0020741253
0.00073362919
4.593058e-05
1.0350402e-05
1.0181102e-05
1.0072638e-05
1.0069421e-05
1.0025591e-05
1.0033493e-05
1.0016483e-05
1.0018035e-05
1.0010909e-05
1.0009e-05
1.0005989e-05
1.0004606e-05
1.0003481e-05
1.0003035e-05
1.0002858e-05
1.0003017e-05
1.0003248e-05
1.0003482e-05
1.0003534e-05
1.0003118e-05
1.0002525e-05
1.0002382e-05
1.000238e-05
1.0002236e-05
1.0002186e-05
1.0002111e-05
1.0001939e-05
1.0001821e-05
1.0001787e-05
1.0001764e-05
1.000175e-05
1.0001628e-05
1.0001454e-05
1.0001442e-05
1.0000792e-05
1.0000614e-05
1.0000381e-05
1.0000215e-05
1.0000047e-05
1.0000024e-05
1.000001e-05
1.0000004e-05
1.0000002e-05
1.0000005e-05
0.001028497
0.0021643533
0.0024332061
0.0019446852
0.00060066597
3.3119945e-05
1.0299703e-05
1.0175124e-05
1.0070341e-05
1.0067406e-05
1.0025076e-05
1.0032719e-05
1.0016425e-05
1.0017706e-05
1.0010832e-05
1.0008853e-05
1.0005914e-05
1.000453e-05
1.0003442e-05
1.0003014e-05
1.0002849e-05
1.0003017e-05
1.0003242e-05
1.0003471e-05
1.0003519e-05
1.0003104e-05
1.0002514e-05
1.0002368e-05
1.0002362e-05
1.000222e-05
1.0002176e-05
1.0002106e-05
1.0001934e-05
1.0001817e-05
1.0001782e-05
1.0001758e-05
1.0001747e-05
1.0001614e-05
1.000141e-05
1.0001368e-05
1.0000771e-05
1.0000603e-05
1.0000384e-05
1.0000172e-05
1.0000047e-05
1.0000024e-05
1.000001e-05
1.0000004e-05
1.0000002e-05
1.0000005e-05
0.0010253276
0.002134571
0.0023614994
0.0018076313
0.000484264
2.4570183e-05
1.0269541e-05
1.0169161e-05
1.0068053e-05
1.0065381e-05
1.002457e-05
1.0031944e-05
1.0016372e-05
1.0017378e-05
1.0010757e-05
1.0008709e-05
1.000584e-05
1.0004455e-05
1.0003405e-05
1.0002995e-05
1.0002844e-05
1.0003018e-05
1.0003237e-05
1.0003458e-05
1.0003503e-05
1.0003089e-05
1.0002503e-05
1.0002355e-05
1.0002343e-05
1.0002204e-05
1.0002166e-05
1.0002101e-05
1.0001929e-05
1.0001812e-05
1.0001776e-05
1.000175e-05
1.0001743e-05
1.0001606e-05
1.0001379e-05
1.0001318e-05
1.0000764e-05
1.0000592e-05
1.0000392e-05
1.0000117e-05
1.0000046e-05
1.0000023e-05
1.000001e-05
1.0000004e-05
1.0000002e-05
1.0000005e-05
0.0010223157
0.0021055117
0.0022971769
0.0016635251
0.00038770732
1.9115305e-05
1.024996e-05
1.0163205e-05
1.0065776e-05
1.0063354e-05
1.0024076e-05
1.0031171e-05
1.0016324e-05
1.0017054e-05
1.0010684e-05
1.0008568e-05
1.0005767e-05
1.0004383e-05
1.0003368e-05
1.0002978e-05
1.0002842e-05
1.0003018e-05
1.0003232e-05
1.0003445e-05
1.0003486e-05
1.0003073e-05
1.0002492e-05
1.0002343e-05
1.0002324e-05
1.0002189e-05
1.0002156e-05
1.0002097e-05
1.0001923e-05
1.0001806e-05
1.0001771e-05
1.0001742e-05
1.0001737e-05
1.0001569e-05
1.0001336e-05
1.0001262e-05
1.0000767e-05
1.0000581e-05
1.0000396e-05
1.0000078e-05
1.0000046e-05
1.0000022e-05
1.0000009e-05
1.0000004e-05
1.0000002e-05
1.0000005e-05
0.0010193024
0.0020753362
0.0022279891
0.0015116933
0.00030339785
1.5592211e-05
1.023575e-05
1.0157265e-05
1.0063514e-05
1.0061326e-05
1.0023594e-05
1.0030403e-05
1.001628e-05
1.0016733e-05
1.0010615e-05
1.0008432e-05
1.0005696e-05
1.0004314e-05
1.0003334e-05
1.0002963e-05
1.0002842e-05
1.0003019e-05
1.0003226e-05
1.0003431e-05
1.0003467e-05
1.0003055e-05
1.000248e-05
1.0002329e-05
1.0002305e-05
1.0002174e-05
1.0002147e-05
1.0002094e-05
1.0001918e-05
1.0001799e-05
1.0001766e-05
1.0001736e-05
1.0001725e-05
1.0001494e-05
1.0001277e-05
1.0001195e-05
1.0000763e-05
1.000057e-05
1.0000394e-05
1.0000069e-05
1.0000044e-05
1.0000021e-05
1.0000009e-05
1.0000004e-05
1.0000002e-05
1.0000005e-05
0.0010164052
0.0020448124
0.0021591465
0.0013552896
0.00023303927
1.3418535e-05
1.0224482e-05
1.0151372e-05
1.0061262e-05
1.0059309e-05
1.0023126e-05
1.0029642e-05
1.0016238e-05
1.0016417e-05
1.0010548e-05
1.0008301e-05
1.0005627e-05
1.0004247e-05
1.0003301e-05
1.0002949e-05
1.0002842e-05
1.0003019e-05
1.0003221e-05
1.0003417e-05
1.0003448e-05
1.0003035e-05
1.0002469e-05
1.0002316e-05
1.0002286e-05
1.0002159e-05
1.0002137e-05
1.0002091e-05
1.0001915e-05
1.0001793e-05
1.0001761e-05
1.0001731e-05
1.0001709e-05
1.0001384e-05
1.0001184e-05
1.0001117e-05
1.0000751e-05
1.0000558e-05
1.0000395e-05
1.0000069e-05
1.0000043e-05
1.0000021e-05
1.0000009e-05
1.0000004e-05
1.0000002e-05
1.0000005e-05
0.0010136524
0.0020134975
0.0020885834
0.0011973211
0.00017566051
1.2119647e-05
1.0214759e-05
1.0145502e-05
1.0059028e-05
1.0057271e-05
1.0022673e-05
1.002889e-05
1.0016197e-05
1.0016109e-05
1.001048e-05
1.0008174e-05
1.0005559e-05
1.0004183e-05
1.000327e-05
1.0002938e-05
1.0002844e-05
1.0003019e-05
1.0003214e-05
1.0003402e-05
1.0003427e-05
1.0003015e-05
1.0002459e-05
1.0002303e-05
1.0002266e-05
1.0002146e-05
1.0002129e-05
1.0002088e-05
1.0001911e-05
1.0001789e-05
1.0001757e-05
1.0001726e-05
1.0001691e-05
1.0001253e-05
1.0001093e-05
1.0001021e-05
1.0000735e-05
1.0000548e-05
1.0000392e-05
1.000007e-05
1.0000041e-05
1.000002e-05
1.0000008e-05
1.0000003e-05
1.0000002e-05
1.0000005e-05
0.0010110357
0.00198112
0.0020160287
0.0010478646
0.00013045065
1.1367327e-05
1.0205873e-05
1.0139696e-05
1.0056817e-05
1.0055242e-05
1.0022236e-05
1.0028149e-05
1.0016156e-05
1.0015802e-05
1.0010413e-05
1.0008051e-05
1.0005493e-05
1.0004122e-05
1.0003241e-05
1.0002927e-05
1.0002848e-05
1.0003018e-05
1.0003208e-05
1.0003387e-05
1.0003406e-05
1.0002994e-05
1.000245e-05
1.0002291e-05
1.0002247e-05
1.0002133e-05
1.000212e-05
1.0002086e-05
1.0001908e-05
1.0001786e-05
1.0001755e-05
1.0001717e-05
1.0001682e-05
1.0001233e-05
1.000104e-05
1.000094e-05
1.0000705e-05
1.000054e-05
1.0000321e-05
1.000007e-05
1.0000039e-05
1.0000019e-05
1.0000008e-05
1.0000003e-05
1.0000002e-05
1.0000005e-05
0.0010080026
0.0019443999
0.001939532
0.00090717457
9.5488974e-05
1.0939883e-05
1.0197439e-05
1.0133955e-05
1.0054632e-05
1.0053241e-05
1.0021816e-05
1.0027417e-05
1.0016116e-05
1.0015472e-05
1.0010346e-05
1.0007934e-05
1.0005429e-05
1.0004063e-05
1.0003215e-05
1.0002918e-05
1.0002855e-05
1.0003017e-05
1.00032e-05
1.0003371e-05
1.0003384e-05
1.0002973e-05
1.0002443e-05
1.000228e-05
1.0002231e-05
1.000212e-05
1.0002111e-05
1.0002083e-05
1.0001903e-05
1.0001782e-05
1.0001754e-05
1.0001705e-05
1.0001676e-05
1.0001222e-05
1.0001017e-05
1.0000862e-05
1.0000682e-05
1.0000537e-05
1.0000221e-05
1.000007e-05
1.0000038e-05
1.0000018e-05
1.0000008e-05
1.0000003e-05
1.0000002e-05
1.0000005e-05
0.0010045827
0.0019039431
0.0018580838
0.0007762744
6.9150552e-05
1.0699945e-05
1.0189291e-05
1.0128276e-05
1.0052475e-05
1.0051266e-05
1.0021415e-05
1.0026698e-05
1.0016074e-05
1.0015167e-05
1.0010278e-05
1.0007822e-05
1.0005367e-05
1.0004008e-05
1.000319e-05
1.0002911e-05
1.0002863e-05
1.0003015e-05
1.0003192e-05
1.0003354e-05
1.0003362e-05
1.0002953e-05
1.0002436e-05
1.0002274e-05
1.0002219e-05
1.0002107e-05
1.0002101e-05
1.000208e-05
1.0001897e-05
1.0001777e-05
1.0001751e-05
1.0001693e-05
1.0001673e-05
1.0001205e-05
1.0000985e-05
1.0000802e-05
1.0000666e-05
1.0000537e-05
1.0000158e-05
1.0000069e-05
1.0000036e-05
1.0000017e-05
1.0000007e-05
1.0000003e-05
1.0000002e-05
1.0000005e-05
0.0010005089
0.0018589946
0.0017696868
0.00065570233
4.983144e-05
1.0564788e-05
1.0181399e-05
1.0122675e-05
1.005035e-05
1.0049323e-05
1.0021035e-05
1.0025995e-05
1.0016028e-05
1.0014881e-05
1.0010211e-05
1.0007715e-05
1.0005307e-05
1.0003956e-05
1.0003167e-05
1.0002904e-05
1.0002868e-05
1.0003013e-05
1.0003182e-05
1.0003336e-05
1.000334e-05
1.0002935e-05
1.0002428e-05
1.000227e-05
1.0002213e-05
1.0002095e-05
1.0002091e-05
1.0002079e-05
1.0001892e-05
1.000177e-05
1.0001743e-05
1.000168e-05
1.0001582e-05
1.0001187e-05
1.0000951e-05
1.0000785e-05
1.0000628e-05
1.0000533e-05
1.0000114e-05
1.0000067e-05
1.0000035e-05
1.0000016e-05
1.0000007e-05
1.0000003e-05
1.0000002e-05
1.0000005e-05
0.00099574248
0.0018090995
0.0016655292
0.00054641596
3.6122624e-05
1.0486615e-05
1.0173739e-05
1.0117153e-05
1.0048259e-05
1.0047414e-05
1.0020677e-05
1.002531e-05
1.0015978e-05
1.0014616e-05
1.0010144e-05
1.0007614e-05
1.0005249e-05
1.0003907e-05
1.0003147e-05
1.0002898e-05
1.0002874e-05
1.000301e-05
1.0003171e-05
1.0003317e-05
1.0003319e-05
1.0002917e-05
1.000242e-05
1.0002269e-05
1.000221e-05
1.0002083e-05
1.000208e-05
1.0002078e-05
1.0001889e-05
1.0001763e-05
1.000173e-05
1.0001662e-05
1.0001434e-05
1.0001149e-05
1.0000936e-05
1.0000779e-05
1.000061e-05
1.000053e-05
1.0000098e-05
1.0000065e-05
1.0000033e-05
1.0000016e-05
1.0000007e-05
1.0000003e-05
1.0000002e-05
1.0000005e-05
0.00099046268
0.001756281
0.0015502259
0.00044907538
2.6746559e-05
1.0438704e-05
1.0166276e-05
1.0111719e-05
1.0046206e-05
1.0045545e-05
1.0020342e-05
1.0024645e-05
1.0015924e-05
1.001438e-05
1.0010078e-05
1.0007519e-05
1.0005194e-05
1.0003861e-05
1.0003129e-05
1.0002893e-05
1.0002879e-05
1.0003006e-05
1.0003159e-05
1.0003297e-05
1.0003299e-05
1.00029e-05
1.000241e-05
1.0002268e-05
1.000221e-05
1.0002072e-05
1.000207e-05
1.0002076e-05
1.000189e-05
1.0001756e-05
1.0001715e-05
1.0001643e-05
1.0001259e-05
1.0001107e-05
1.0000917e-05
1.000078e-05
1.000059e-05
1.000052e-05
1.0000096e-05
1.0000062e-05
1.0000032e-05
1.0000015e-05
1.0000006e-05
1.0000003e-05
1.0000002e-05
1.0000005e-05
0.00098485444
0.0017013278
0.0014250024
0.00036383431
2.0630857e-05
1.0406576e-05
1.0158967e-05
1.0106377e-05
1.0044193e-05
1.0043719e-05
1.0020032e-05
1.0024003e-05
1.0015867e-05
1.0014155e-05
1.0010012e-05
1.0007429e-05
1.0005142e-05
1.0003818e-05
1.0003112e-05
1.0002889e-05
1.0002884e-05
1.0003001e-05
1.0003146e-05
1.0003278e-05
1.000328e-05
1.0002883e-05
1.00024e-05
1.0002266e-05
1.000221e-05
1.0002062e-05
1.0002059e-05
1.0002073e-05
1.0001895e-05
1.0001751e-05
1.0001704e-05
1.000163e-05
1.0001173e-05
1.0001082e-05
1.0000898e-05
1.0000774e-05
1.000057e-05
1.0000448e-05
1.0000094e-05
1.0000059e-05
1.000003e-05
1.0000014e-05
1.0000006e-05
1.0000003e-05
1.0000002e-05
1.0000005e-05
0.00097891166
0.0016439936
0.0012981841
0.0002911456
1.6716241e-05
1.0382425e-05
1.0151772e-05
1.0101138e-05
1.0042225e-05
1.0041941e-05
1.0019749e-05
1.0023385e-05
1.0015806e-05
1.0013942e-05
1.0009948e-05
1.0007346e-05
1.0005093e-05
1.0003778e-05
1.0003097e-05
1.0002884e-05
1.0002889e-05
1.0002996e-05
1.0003132e-05
1.000326e-05
1.0003262e-05
1.0002866e-05
1.000239e-05
1.0002262e-05
1.0002211e-05
1.0002052e-05
1.0002047e-05
1.000207e-05
1.0001902e-05
1.000175e-05
1.0001695e-05
1.0001629e-05
1.0001149e-05
1.0001023e-05
1.0000887e-05
1.0000754e-05
1.0000553e-05
1.0000328e-05
1.0000094e-05
1.0000056e-05
1.0000029e-05
1.0000013e-05
1.0000006e-05
1.0000003e-05
1.0000002e-05
1.0000005e-05
0.00097273095
0.0015815006
0.0011748366
0.00022886659
1.4205205e-05
1.036228e-05
1.0144675e-05
1.0096011e-05
1.0040305e-05
1.0040216e-05
1.0019493e-05
1.0022792e-05
1.0015743e-05
1.001374e-05
1.0009886e-05
1.0007269e-05
1.0005047e-05
1.0003741e-05
1.0003083e-05
1.000288e-05
1.0002894e-05
1.000299e-05
1.0003117e-05
1.0003244e-05
1.0003243e-05
1.0002849e-05
1.0002381e-05
1.0002256e-05
1.000221e-05
1.0002042e-05
1.0002034e-05
1.0002065e-05
1.000191e-05
1.0001751e-05
1.0001682e-05
1.0001629e-05
1.0001129e-05
1.0000932e-05
1.0000861e-05
1.000073e-05
1.0000538e-05
1.0000247e-05
1.0000093e-05
1.0000054e-05
1.0000027e-05
1.0000013e-05
1.0000005e-05
1.0000002e-05
1.0000002e-05
1.0000006e-05
0.00096728483
0.001521866
0.0010499103
0.00017638304
1.2649315e-05
1.0344035e-05
1.0137662e-05
1.0090995e-05
1.0038437e-05
1.0038545e-05
1.0019266e-05
1.0022224e-05
1.0015676e-05
1.001355e-05
1.0009825e-05
1.0007198e-05
1.0005004e-05
1.0003707e-05
1.0003069e-05
1.0002876e-05
1.0002899e-05
1.0002984e-05
1.0003102e-05
1.0003228e-05
1.0003221e-05
1.0002833e-05
1.0002371e-05
1.0002248e-05
1.0002208e-05
1.0002032e-05
1.000202e-05
1.0002055e-05
1.0001913e-05
1.0001749e-05
1.0001663e-05
1.0001605e-05
1.0001115e-05
1.0000868e-05
1.0000825e-05
1.0000705e-05
1.0000528e-05
1.0000189e-05
1.0000092e-05
1.0000051e-05
1.0000026e-05
1.0000012e-05
1.0000005e-05
1.0000002e-05
1.0000002e-05
1.0000006e-05
0.00096248562
0.0014633526
0.00092611066
0.00013334682
1.1708079e-05
1.0326473e-05
1.013073e-05
1.0086093e-05
1.0036623e-05
1.0036929e-05
1.001907e-05
1.0021681e-05
1.0015607e-05
1.0013371e-05
1.0009767e-05
1.0007133e-05
1.0004964e-05
1.0003675e-05
1.0003057e-05
1.0002872e-05
1.0002906e-05
1.0002978e-05
1.0003087e-05
1.0003211e-05
1.0003197e-05
1.0002819e-05
1.0002361e-05
1.0002239e-05
1.0002204e-05
1.0002023e-05
1.0002006e-05
1.0002044e-05
1.0001909e-05
1.0001742e-05
1.0001632e-05
1.0001467e-05
1.0001094e-05
1.0000833e-05
1.000081e-05
1.0000673e-05
1.0000518e-05
1.0000148e-05
1.000009e-05
1.0000049e-05
1.0000024e-05
1.0000011e-05
1.0000005e-05
1.0000002e-05
1.0000002e-05
1.0000006e-05
0.0009582254
0.0014019356
0.00080559131
9.9067076e-05
1.1155258e-05
1.0309099e-05
1.0123896e-05
1.0081317e-05
1.003487e-05
1.0035375e-05
1.0018906e-05
1.0021167e-05
1.0015535e-05
1.0013203e-05
1.0009712e-05
1.0007075e-05
1.0004928e-05
1.0003645e-05
1.0003044e-05
1.0002868e-05
1.000291e-05
1.0002972e-05
1.0003073e-05
1.0003188e-05
1.000317e-05
1.0002804e-05
1.0002351e-05
1.0002228e-05
1.0002198e-05
1.0002013e-05
1.0001993e-05
1.0002036e-05
1.0001899e-05
1.0001727e-05
1.0001598e-05
1.0001275e-05
1.0001058e-05
1.0000817e-05
1.0000804e-05
1.0000653e-05
1.0000491e-05
1.0000124e-05
1.0000086e-05
1.0000046e-05
1.0000023e-05
1.0000011e-05
1.0000005e-05
1.0000002e-05
1.0000002e-05
1.0000006e-05
0.00095482986
0.0013376923
0.00069082163
7.252924e-05
1.0837175e-05
1.0292191e-05
1.0117175e-05
1.0076669e-05
1.003318e-05
1.0033882e-05
1.0018774e-05
1.0020681e-05
1.0015458e-05
1.0013047e-05
1.0009659e-05
1.0007024e-05
1.0004894e-05
1.0003617e-05
1.0003032e-05
1.0002865e-05
1.0002912e-05
1.0002968e-05
1.0003058e-05
1.0003156e-05
1.0003143e-05
1.000279e-05
1.0002341e-05
1.0002216e-05
1.0002191e-05
1.0002004e-05
1.000198e-05
1.0002031e-05
1.0001886e-05
1.0001709e-05
1.0001573e-05
1.0001045e-05
1.0001019e-05
1.0000805e-05
1.0000792e-05
1.000064e-05
1.0000425e-05
1.0000116e-05
1.0000083e-05
1.0000044e-05
1.0000022e-05
1.000001e-05
1.0000004e-05
1.0000002e-05
1.0000002e-05
1.0000006e-05
0.00095264905
0.0012718564
0.00058366091
5.2609407e-05
1.0655662e-05
1.0277047e-05
1.0110585e-05
1.0072152e-05
1.0031559e-05
1.0032454e-05
1.0018677e-05
1.0020221e-05
1.0015376e-05
1.0012902e-05
1.000961e-05
1.0006978e-05
1.0004865e-05
1.000359e-05
1.000302e-05
1.0002861e-05
1.0002914e-05
1.0002967e-05
1.0003044e-05
1.0003125e-05
1.0003113e-05
1.0002776e-05
1.0002331e-05
1.0002203e-05
1.0002183e-05
1.0001995e-05
1.0001966e-05
1.0002026e-05
1.0001873e-05
1.0001693e-05
1.0001576e-05
1.0000974e-05
1.0000956e-05
1.0000787e-05
1.0000732e-05
1.0000631e-05
1.0000368e-05
1.0000109e-05
1.0000079e-05
1.0000042e-05
1.0000021e-05
1.000001e-05
1.0000004e-05
1.0000002e-05
1.0000002e-05
1.0000006e-05
0.00095158591
0.0012057682
0.00048531696
3.8253929e-05
1.054968e-05
1.0262226e-05
1.0104123e-05
1.0067777e-05
1.0030011e-05
1.0031091e-05
1.0018615e-05
1.0019788e-05
1.0015289e-05
1.0012767e-05
1.0009565e-05
1.0006939e-05
1.0004838e-05
1.0003565e-05
1.0003007e-05
1.0002856e-05
1.0002917e-05
1.0002966e-05
1.0003026e-05
1.0003093e-05
1.0003082e-05
1.0002762e-05
1.0002322e-05
1.0002189e-05
1.0002173e-05
1.0001988e-05
1.0001953e-05
1.000202e-05
1.0001858e-05
1.0001676e-05
1.0001588e-05
1.0000942e-05
1.0000923e-05
1.0000775e-05
1.000067e-05
1.0000607e-05
1.0000319e-05
1.0000105e-05
1.0000075e-05
1.0000039e-05
1.000002e-05
1.0000009e-05
1.0000004e-05
1.0000002e-05
1.0000002e-05
1.0000006e-05
0.00095049086
0.0011271865
0.00039660487
2.8354281e-05
1.048308e-05
1.0247555e-05
1.0097806e-05
1.0063551e-05
1.0028541e-05
1.0029793e-05
1.0018591e-05
1.001938e-05
1.0015199e-05
1.0012643e-05
1.0009523e-05
1.0006906e-05
1.0004815e-05
1.0003542e-05
1.0002994e-05
1.0002848e-05
1.0002917e-05
1.0002968e-05
1.0003004e-05
1.0003058e-05
1.0003048e-05
1.0002747e-05
1.0002312e-05
1.0002174e-05
1.0002162e-05
1.000198e-05
1.0001939e-05
1.0002013e-05
1.0001842e-05
1.0001654e-05
1.0001601e-05
1.0000912e-05
1.000084e-05
1.0000753e-05
1.0000618e-05
1.0000555e-05
1.0000276e-05
1.0000104e-05
1.0000071e-05
1.0000037e-05
1.0000018e-05
1.0000008e-05
1.0000004e-05
1.0000002e-05
1.0000003e-05
1.0000007e-05
0.00094968977
0.0010448185
0.00031956554
2.1821685e-05
1.0437084e-05
1.0233134e-05
1.0091647e-05
1.005948e-05
1.0027154e-05
1.0028559e-05
1.0018614e-05
1.0018996e-05
1.0015105e-05
1.001253e-05
1.0009485e-05
1.0006879e-05
1.0004795e-05
1.000352e-05
1.000298e-05
1.0002836e-05
1.0002911e-05
1.0002966e-05
1.000298e-05
1.0003022e-05
1.0003013e-05
1.0002733e-05
1.0002304e-05
1.0002158e-05
1.0002149e-05
1.0001971e-05
1.0001924e-05
1.0002006e-05
1.0001828e-05
1.0001621e-05
1.0001578e-05
1.0000878e-05
1.0000772e-05
1.0000712e-05
1.0000577e-05
1.0000481e-05
1.0000237e-05
1.0000104e-05
1.0000067e-05
1.0000035e-05
1.0000017e-05
1.0000008e-05
1.0000004e-05
1.0000002e-05
1.0000003e-05
1.0000007e-05
0.00094848712
0.00095403109
0.00025485215
1.7712707e-05
1.0401583e-05
1.0218972e-05
1.0085657e-05
1.0055575e-05
1.0025854e-05
1.002739e-05
1.0018634e-05
1.0018631e-05
1.0015009e-05
1.0012425e-05
1.0009452e-05
1.0006858e-05
1.0004778e-05
1.00035e-05
1.0002963e-05
1.000282e-05