/*--------------------------------*- C++ -*----------------------------------*\
  =========                 |
  \\      /  F ield         | OpenFOAM: The Open Source CFD Toolbox
   \\    /   O peration     | Website:  https://openfoam.org
    \\  /    A nd           | Version:  8
     \\/     M anipulation  |
\*---------------------------------------------------------------------------*/
FoamFile
{
    version     2.0;
    format      ascii;
    class       volScalarField;
    location    "0.0300106";
    object      p;
}
// * * * * * * * * * * * * * * * * * * * * * * * * * * * * * * * * * * * * * //

dimensions      [1 -1 -2 0 0 0 0];

internalField   nonuniform List<scalar> 
20000
(
80810.895
80825.154
80841.72
80864.006
80894.026
80933.698
80986.319
81047.751
81124.688
81217.717
81325.931
81463.056
81615.3
81811.979
82027.773
82303.856
82611.026
82995.532
83439.634
83983.772
84613.568
85354.197
86190.43
87142.666
88193.156
89344.411
90573.285
91848.043
93123.011
94354.155
95497.406
96518.924
97400.485
98134.11
98715.265
99151.773
99466.342
99631.857
99676.374
99569.261
99295.995
99166.768
99554.578
99990.106
100147.48
100171.45
100092.19
100043.7
100018.59
100006.35
80599.354
80614.577
80631.537
80655.106
80687.371
80730.433
80788.227
80854.772
80936.298
81033.477
81144.745
81286.002
81441.935
81644.285
81866.184
82153.559
82476.368
82884.584
83351.934
83919.443
84568.943
85327.928
86179.18
87143.153
88220.022
89399.212
90653.763
91948.922
93236.47
94470.683
95608.214
96617.079
97482.326
98197.789
98758.319
99190.738
99482.831
99623.931
99659.884
99484.524
99257.169
99165.83
99645.156
100012.78
100147.03
100169.73
100091.7
100044.02
100018.95
100006.45
80460.875
80476.4
80493.543
80517.279
80549.784
80592.925
80650.83
80717.008
80798.628
80897.182
81010.818
81157.602
81319.552
81532.871
81767.439
82071.204
82409.829
82833.722
83314.431
83895.339
84555.107
85322.506
86192.253
87184.419
88289.209
89496.344
90775.293
92087.694
93383.595
94616.186
95743.142
96734.845
97579.709
98272.634
98811.193
99234.332
99500.125
99615.342
99632.385
99396.594
99222.208
99179.128
99712.522
100033.58
100147.92
100169.05
100091.47
100044.16
100019.13
100006.52
80349.853
80365.86
80383.753
80408.622
80442.947
80488.36
80549.574
80619.724
80706.714
80812.239
80933.142
81088.803
81257.535
81479.818
81722.389
82035.954
82383.463
82816.975
83303.35
83890.527
84562.387
85351.685
86248.732
87270.091
88404.172
89638.573
90939.583
92265.807
93565.569
94791.577
95902.925
96872.852
97692.98
98359.065
98876.141
99280.088
99517.545
99609.217
99593.993
99323.494
99181.735
99217.594
99758.986
100053.68
100152.73
100168.88
100091.28
100044.23
100019.22
100006.57
80291.044
80307.533
80325.886
80351.599
80387.468
80434.816
80498.956
80572.326
80662.85
80772.824
80897.202
81058.22
81231.463
81460.643
81707.472
82025.576
82377.085
82816.741
83316.377
83921.091
84613.742
85426.854
86351.754
87402.674
88565.392
89825.395
91145.798
92481.979
93780.834
94995.128
96085.808
97029.333
97820.211
98455.615
98950.973
99326.428
99533.753
99605.562
99552.274
99266.41
99135.488
99279.592
99801.938
100073.91
100160.92
100168.86
100091.17
100044.28
100019.28
100006.6
80262.661
80279.949
80299.327
80326.457
80364.392
80413.692
80480.162
80555.063
80646.913
80758.741
80884.178
81047.9
81224.044
81457.72
81709.565
82037.487
82400.175
82854.735
83370.269
83994.044
84709.085
85547.739
86500.904
87580.954
88771.773
90055.725
91392.648
92734.81
94027.946
95225.422
96290.457
97202.937
97960.064
98562.002
99034.142
99372.835
99548.353
99602.158
99510.075
99221.955
99096.214
99352.089
99843.156
100094.72
100173.44
100168.89
100091.08
100044.3
100019.32
100006.64
80255.843
80273.691
80293.425
80321.073
80360.019
80410.119
80478.157
80554.509
80648.636
80763.903
80892.566
81062.098
81244.188
81487.084
81747.665
82087.133
82462.257
82932.291
83465.63
84110.142
84848.79
85713.546
86695.207
87804.205
89022.238
90328.241
91678.592
93022.523
94305.016
95480.559
96514.978
97391.674
98110.893
98678.357
99123.18
99418.745
99560.898
99599.425
99460.068
99187.13
99073.77
99421.2
99883.167
100116.66
100189.02
100168.89
100090.99
100044.31
100019.34
100006.67
80274.109
80292.796
80313.518
80342.473
80383.693
80436.04
80507.292
80586.912
80684.58
80804.701
80937.579
81114.063
81301.155
81552.815
81822.364
82174.196
82562.711
83049.21
83600.968
84266.789
85029.847
85921.511
86932.098
88069.948
89314.428
90640.597
92001.23
93342.706
94609.718
95758.343
96757.204
97593.384
98271.439
98805.338
99214.964
99464.216
99572.062
99595.748
99405.146
99160.214
99063.653
99484.978
99921.338
100139.16
100205.84
100168.89
100090.87
100044.31
100019.36
100006.7
80326.701
80346.175
80367.605
80397.509
80440.556
80494.51
80568.201
80650.392
80751.148
80876.179
81013.703
81197.624
81391.467
81652.996
81932.184
82296.79
82699.136
83202.421
83773.624
84461.804
85250.303
86169.698
87209.766
88376.462
89646.501
90990.779
92358.339
93693.007
94939.68
96056.375
97014.631
97805.828
98440.919
98941.764
99306.383
99509.381
99584.779
99586.475
99350.356
99138.628
99059.707
99544.778
99957.905
100161.63
100222.96
100168.91
100090.67
100044.22
100019.36
100006.72
80404.307
80424.879
80447.544
80479.051
80524.896
80581.478
80658.601
80744.363
80848.786
80979.309
81121.487
81312.926
81513.443
81784.938
82073.91
82451.633
82868.413
83389.33
83980.802
84692.277
85507.301
86455.394
87525.596
88721.194
90015.919
91376.166
92747.209
94070.704
95292.238
96371.965
97284.578
98027.168
98619.323
99083.444
99395.846
99553.888
99604.536
99569.194
99297.393
99119.699
99058.505
99602.774
99993.429
100183.65
100240.37
100168.92
100090.37
100044.05
100019.35
100006.74
80513.514
80535.016
80558.612
80591.269
80639.528
80698.03
80778.125
80866.95
80974.651
81110.516
81257.202
81456.222
81663.376
81945.059
82244.228
82635.595
83067.634
83607.021
84220.069
84956.104
85798.907
86776.738
87877.762
89102.273
90420.638
91794.471
93165.333
94473.166
95664.647
96702.178
97564.355
98256.244
98806.708
99225.586
99482.152
99598.735
99631.016
99542.251
99250.02
99100.861
99081.744
99661.472
100029.15
100204.49
100257.43
100168.81
100089.9
100043.77
100019.27
100006.75
80642.838
80665.603
80690.522
80724.747
80776.233
80836.919
80920.574
81013.07
81124.249
81265.683
81416.884
81623.681
81837.764
82130.113
82440.161
82846.021
83294.426
83853.495
84489.354
85251.193
86123.057
87131.711
88264.25
89517.624
90858.434
92243.255
93610.086
94897.653
96053.997
97044.007
97851.775
98492.863
99001.555
99364.26
99564.618
99643.674
99659.529
99506.72
99211.063
99076.452
99139.226
99722.818
100067.21
100223.91
100272.5
100168.36
100089.24
100043.36
100019.13
100006.76
80795.632
80819.42
80845.315
80880.71
80935.105
80997.136
81083.566
81179.51
81293.973
81441.101
81597.122
81812.288
82033.94
82337.795
82659.723
83081.108
83547.102
84126.993
84787.05
85576.032
86478.28
87518.845
88683.527
89965.549
91327.325
92720.223
94078.92
95341.367
96457.164
97394.454
98145.363
98737.219
99198.309
99497.618
99642.945
99688.622
99679.769
99467.028
99178.78
99054.542
99217.825
99789.734
100110.13
100242.88
100282.36
100167.57
100088.37
100042.83
100018.94
100006.77
80960.893
80985.95
81013.163
81050.269
81107.924
81172.413
81262.23
81362.497
81480.941
81634.653
81796.167
82020.552
82250.597
82566.896
82901.731
83339.656
83824.425
84426.344
85111.941
85929.397
86863.357
87936.929
89134.307
90444.582
91825.526
93223.249
94569.383
95801.486
96871.042
97751.094
98444.658
98988.657
99391.137
99624.135
99718.363
99734.144
99689.364
99428.77
99152.55
99043.038
99305
99858.904
100157.24
100264.93
100287.21
100166.47
100087.27
100042.19
100018.72
100006.77
81142.183
81168.753
81197.468
81236.337
81297.554
81364.719
81458.124
81562.976
81685.565
81846.294
82013.76
82248.087
82487.26
82816.805
83165.46
83620.823
84125.492
84750.545
85463.033
86310.288
87277.28
88384.886
89615.395
90953.243
92351.202
93750.076
95078.807
96274.856
97292.444
98112.166
98749.621
99242.371
99575.95
99743.278
99794.276
99779.325
99693.367
99394.167
99134.304
99038.165
99391.569
99925.204
100204.9
100295.36
100289.32
100165.09
100085.94
100041.45
100018.46
100006.76
81340.473
81368.436
81398.52
81439.219
81503.794
81573.448
81670.439
81780.292
81907.423
82075.837
82249.808
82494.758
82743.643
83087.051
83450.309
83923.904
84449.611
85098.988
85839.771
86718.218
87719.587
88862.225
90126.125
91490.557
92902.923
94298.759
95604.663
96758.462
97718.844
98477.029
99059.785
99491.493
99750.772
99857.655
99870.879
99824.579
99694.629
99364.856
99125.739
99036.747
99476.005
99986.852
100249.66
100332.15
100289.92
100163.32
100084.36
100040.62
100018.17
100006.73
81553.477
81583.11
81614.861
81657.762
81725.802
81798.16
81899.38
82014.987
82147.118
82323.71
82504.388
82760.312
83019.271
83377.056
83755.68
84248.406
84796.296
85471.166
86241.627
87152.646
88189.693
89368.261
90665.57
92055.219
93478.897
94866.96
96143.956
97249.105
98148.358
98845.514
99371.541
99730.18
99914.983
99971.13
99945.072
99869.366
99688.908
99340.073
99122.427
99039.829
99560.971
100044.81
100290.78
100367.76
100289.93
100160.87
100082.56
100039.73
100017.84
100006.68
81785.198
81816.438
81849.739
81894.722
81966.011
82041.645
82146.705
82267.805
82404.595
82589.325
82776.672
83043.873
83313.384
83686.193
84081.151
84593.874
85165.262
85866.954
86668.608
87613.699
88687.774
89903.079
91233.526
92646.537
94077.799
95452.582
96693.888
97744.285
98580.361
99217.168
99677.559
99956.197
100072.47
100082.57
100014.8
99909.63
99668.798
99318.389
99121.769
99057.641
99648.445
100100.3
100326.91
100399.26
100286.89
100157.73
100080.59
100038.78
100017.49
100006.62
82030.647
82063.651
82098.633
82146.057
82221.341
82300.911
82409.545
82536.189
82677.703
82871.062
83065.51
83344.693
83625.508
84014.153
84426.444
84960.289
85556.423
86286.203
87120.553
88101.21
89213.604
90466.267
91829.229
93263.226
94697.657
96052.821
97251.272
98241.996
99014.666
99588.626
99971.15
100168.68
100227.94
100188.59
100078.93
99934.749
99637.77
99298.953
99132.945
99099.218
99738.769
100155.47
100357.71
100423.36
100282.22
100154.16
100078.5
100037.79
100017.13
100006.55
82288.312
82323.315
82360.24
82410.48
82489.653
82573.314
82686.135
82819.092
82965.875
83168.655
83370.802
83662.701
83955.587
84360.854
84791.618
85347.491
85969.81
86729.201
87597.965
88615.83
89767.815
91058.239
92452.658
93904.583
95336.846
96665.144
97813.637
98741.616
99450.761
99952.488
100249.69
100372.27
100379.43
100288.26
100137.64
99946
99601.838
99283.687
99147.449
99175.556
99830.181
100213.12
100384.53
100437.49
100276.71
100150.32
100076.33
100036.78
100016.75
100006.49
82560.805
82597.792
82636.568
82689.678
82772.572
82860.223
82977.495
83117.353
83269.699
83482.432
83692.665
83997.912
84303.631
84726.331
85176.625
85755.773
86405.681
87196.184
88101.077
89157.731
90350.405
91678.684
93102.994
94569.059
95992.86
97286.448
98378.839
99242.983
99884.677
100302.12
100512.18
100571.9
100523.02
100381.41
100192.57
99949.649
99566.515
99274.647
99157.971
99287.227
99924.33
100273.58
100411.32
100444.96
100270.77
100146.32
100074.11
100035.76
100016.38
100006.41
82846.953
82886.231
82927.268
82983.595
83070.496
83162.623
83284.267
83431.211
83589.127
83812.28
84031.014
84350.294
84669.674
85110.618
85581.702
86185.203
86864.473
87687.934
88630.869
89727.941
90962.26
92328.12
93780.104
95255.522
96663.477
97914.253
98946.104
99745.596
100309.03
100634.47
100763.72
100765.07
100657.37
100468.06
100245.46
99949.985
99534.921
99270.515
99168.906
99414.096
100016.95
100334.25
100443.25
100447.96
100264.63
100142.16
100071.83
100034.73
100016.01
100006.35
83148.201
83189.545
83232.577
83291.749
83382.911
83479.306
83605.197
83759.679
83923.62
84157.957
84385.814
84719.844
85053.777
85513.848
86007.053
86636.519
87346.892
88205.103
89187.885
90326.841
91603.493
93006.219
94482.908
95961.829
97345.656
98546.088
99515.082
100244.87
100717.35
100948.56
101009.01
100947.86
100781.93
100547.91
100295.24
99939.689
99509.776
99269.204
99182.012
99541.039
100103.57
100392.58
100486.83
100448.72
100258.38
100137.83
100069.5
100033.7
100015.65
100006.28
83458.667
83502.606
83548.337
83611.227
83707.487
83809.202
83940.252
84103.251
84273.601
84519.825
84757.205
85106.679
85456.136
85936.448
86453.435
87110.358
87853.892
88748.871
89773.383
90955.633
92275.041
93713.346
95210.773
96686.076
98036.874
99180.751
100085.37
100733.38
101106.08
101249.62
101245.16
101119.24
100896.79
100620.85
100335.34
99921.699
99492.456
99269.839
99200.873
99661.854
100183.21
100448.03
100532.71
100444.39
100251.46
100133.26
100067.17
100032.7
100015.29
100006.22
83784.844
83831.508
83880.282
83947.012
84048.474
84155.391
84291.244
84462.668
84639.252
84897.727
85145.212
85511.021
85877.376
86379.231
86921.754
87607.971
88386.529
89320.105
90388.056
91614.781
92976.986
94448.873
95961.943
97425.347
98734.365
99817.522
100652.57
101204.45
101474.09
101541.92
101468.52
101278.38
101002.15
100687.51
100355.27
99897.678
99484.495
99280.365
99229.866
99777.726
100256
100495.84
100572.05
100433.83
100243.48
100128.55
100064.85
100031.71
100014.95
100006.16
84127.712
84176.811
84228.132
84297.803
84403.524
84515.271
84655.955
84836.404
85019.804
85291.716
85550.446
85933.834
86318.567
86843.332
87413.169
88130.26
88945.949
89920.138
91033.266
92305.51
93710.093
95212.632
96734.867
98177.089
99436.355
100456.18
101209.23
101653.85
101826.43
101822.67
101678.12
101424.9
101098.22
100749.46
100363.02
99869.595
99482.072
99303.174
99275.994
99888.969
100322.44
100533.65
100600.46
100420.84
100235.01
100123.84
100062.58
100030.76
100014.62
100006.1
84476.181
84528.467
84583.561
84657.6
84769.328
84887.77
85034.56
85225.715
85416.834
85703.425
85974.391
86376.36
86780.879
87329.798
87928.703
88678.551
89533.254
90549.915
91709.778
93028.279
94474.211
96003.365
97526.935
98938.298
100141.34
101093.53
101747.82
102079.4
102167.71
102088.13
101873.1
101558.52
101184.85
100806.44
100364.73
99841.46
99483.846
99333.634
99352.114
99994.475
100383.94
100562.56
100615.44
100407.07
100226.45
100119.19
100060.37
100029.84
100014.3
100006.05
84844.236
84899.578
84958.275
85036.287
85153.377
85278.539
85431.071
85633.284
85832.267
86134.147
86418.126
86839.576
87265.288
87839.67
88469.443
89253.743
90149.666
91210.847
92418.978
93784.165
95269.611
96819.974
98335.724
99706.78
100848.82
101722.17
102263.45
102485.65
102495.24
102337.37
102053.1
101679.59
101262.31
100852.24
100355.03
99817.881
99494.961
99368.961
99464.138
100095.5
100443.43
100587.47
100622.27
100393.18
100217.98
100114.65
100058.22
100028.95
100013.99
100006.01
85224.44
85283.441
85346.795
85429.722
85552.985
85686.135
85844.77
86058.952
86266.206
86584.305
86882.314
87324.253
87772.697
88373.867
89036.395
89857.226
90796.41
91904.008
93161.693
94573.481
96095.584
97660.243
99158.119
100480.4
101557.24
102333.14
102752.21
102878.1
102805.18
102569.54
102217.67
101788.59
101332.03
100875.24
100331.12
99799.713
99512.285
99411.037
99601.395
100195.61
100504.6
100615.93
100624.77
100379.56
100209.66
100110.21
100056.14
100028.09
100013.7
100005.97
85626.564
85688.904
85756.498
85843.296
85971.325
86112.065
86276.462
86503.201
86719.227
87054.544
87367.735
87831.165
88303.902
88933.338
89630.699
90490.117
91474.934
92630.95
93939.283
95396.936
96951.51
98521.921
99991.493
101257.88
102260.04
102920.65
103217.45
103254.89
103096.23
102784.31
102366.75
101886.04
101396.23
100884.26
100297.26
99786.055
99532.624
99455.925
99748.261
100292.65
100566.53
100657.53
100625.57
100366.36
100201.47
100105.86
100054.12
100027.27
100013.43
100005.93
86037.227
86103.335
86176.488
86269.264
86403.87
86553.897
86725.469
86966.407
87191.988
87545.534
87875.03
88360.912
88859.649
89519.066
90253.567
91154.05
92186.668
93392.873
94752.512
96254.397
97835.706
99401.958
100833.09
102037.79
102948.25
103479.51
103664.35
103612.26
103367.61
102981.31
102500.47
101971.95
101453.05
100886.47
100257.89
99779.649
99555.788
99501.366
99891.75
100383.91
100626.6
100703.07
100613.12
100353.26
100193.27
100101.61
100052.18
100026.49
100013.17
100005.9
86465.79
86536.206
86616.159
86716.439
86857.613
87016.572
87194.524
87450.014
87685.284
88057.614
88404.641
88914.131
89440.938
90132.341
90906.545
91850.436
92933.283
94191.384
95602.486
97145.771
98746.35
100297.56
101680.83
102816.34
103613.76
104009.82
104093.84
103947.92
103619
103160.59
102619.59
102046.89
101490.16
100878.77
100217.37
99777.493
99584.037
99548.701
100026.1
100466
100678.79
100743.5
100592.25
100339.09
100185.07
100097.49
100050.33
100025.75
100012.92
100005.88
86914.911
86989.996
87074.612
87179.647
87328.108
87496.842
87681.471
87952.665
88198.678
88590.963
88957.255
89491.966
90049.237
90774.913
91591.463
92581.435
93716.47
95027.708
96489.625
98069.975
99680.641
101205.69
102532.88
103584.92
104250.25
104515.9
104502.38
104261.01
103850.09
103322.1
102724.94
102112.93
101507
100854.5
100180.9
99777.314
99615.895
99606.01
100147.63
100536.46
100719.2
100772.92
100568.59
100324.58
100177.06
100093.54
100048.58
100025.05
100012.7
100005.87
87381.692
87461.684
87551.102
87660.483
87815.623
87995.79
88187.289
88475.551
88733.362
89146.955
89534.5
90096.273
90686.595
91448.951
92310.453
93348.681
94537.933
95903.257
97414.35
99025.651
100635.66
102123.6
103387.35
104333.59
104853.8
105002.38
104886.2
104551.2
104060.89
103466.12
102817.17
102172.01
101512.36
100814.32
100150.8
99784.081
99646.843
99687.486
100253.68
100595.35
100747.47
100787.99
100544.55
100310.32
100169.37
100089.79
100046.91
100024.39
100012.49
100005.87
87862.295
87947.631
88043.828
88159.932
88321.264
88514.652
88713.334
89019.92
89290.914
89727.462
90138.598
90729.322
91355.241
92156.492
93065.367
94154.271
95399.275
96818.951
98376.22
100010.47
101608.09
103048.38
104237.47
105054.31
105427.14
105466.14
105244.24
104818.19
104251.4
103593.06
102896.58
102219.82
101512.17
100762.29
100125.8
99797.818
99682.456
99797.285
100347.16
100646.39
100768.59
100794.84
100521.09
100296.61
100162.06
100086.24
100045.33
100023.76
100012.29
100005.87
88362.035
88453.27
88556.373
88679.516
88847.247
89054.55
89261.622
89587.997
89873.945
90335.091
90772.042
91393.343
92057.145
92899.521
93858.208
94999.839
96302.118
97775.689
99374.463
101021.77
102594.94
103977.79
105073.18
105740.23
105975.92
105903.02
105576.03
105062.07
104421.93
103703.84
102964.39
102244.44
101499.87
100703.48
100105.61
99818.543
99726.497
99925.326
100435.82
100696.51
100790.44
100797.18
100498.77
100283.6
100155.13
100082.86
100043.84
100023.18
100012.12
100005.88
88882.019
88979.554
89089.402
89220.198
89395.157
89618.077
89834.928
90182.992
90485.298
90972.157
91436.775
92090.05
92794.081
93679.889
94690.859
95887.503
97247.933
98773.725
100407.37
102056.24
103593.02
104908.71
105883.28
106390.09
106500.29
106310.5
105881.32
105282.94
104572.87
103799.54
103022.77
102253.83
101472.71
100644.73
100095.37
99845.079
99778.78
100061.83
100521.54
100747.46
100822.21
100795.88
100477.92
100271.27
100148.52
100079.65
100042.42
100022.62
100011.96
100005.9
89424.897
89529.229
89646.21
89786.783
89970.252
90209.898
90436.425
90807.168
91126.577
91639.8
92133.952
92820.931
93567.814
94499.765
95565.556
96819.08
98238.075
99812.935
101472.71
103110.57
104599.05
105831.82
106659.74
107007.91
106996.3
106687.91
106160.22
105481.27
104705.12
103881.43
103070.88
102255.91
101426.86
100592.16
100092.28
99877.93
99835.667
100196.24
100603.55
100798.72
100859.66
100778.97
100458.8
100259.45
100142.18
100076.59
100041.09
100022.11
100011.81
100005.93
89990.832
90102.862
90228.339
90381.152
90573.35
90830.515
91065.99
91460.002
91797.894
92338.673
92864.957
93587.887
94380.662
95361.483
96484.528
97796.663
99273.485
100892.28
102567.4
104181.18
105609.75
106735.45
107396.04
107599.04
107459.07
107034.86
106412.95
105657.52
104819.8
103951.22
103098.09
102247.04
101364.36
100547.55
100093.19
99916.967
99897.994
100322.73
100678.67
100846.39
100896.93
100751.33
100439.22
100247.78
100136.07
100073.69
100039.83
100021.64
100011.69
100005.97
90583.041
90703.295
90837.296
91001.908
91200.774
91477.227
91722.729
92141.552
92500.361
93070.604
93632.06
94393.53
95235.189
96267.681
97450.175
98821.932
100354.63
102010.09
103687.98
105264.28
106619.53
107607.94
108093.63
108159.95
107887.49
107351.47
106640.06
105812.53
104918.24
104010.76
103109.86
102225.11
101290.18
100510.91
100102.78
99957.157
99972.947
100436
100743.44
100884.96
100924.67
100718.28
100419.08
100236.42
100130.26
100070.96
100038.66
100021.2
100011.58
100006.02
91196.715
91326.171
91469.088
91646.659
91853.092
92151.397
92408.83
92854.509
93236.82
93838.45
94438.182
95240.758
96134.298
97221.01
98464.809
99896.513
101481.24
103163.77
104830.74
106355.85
107617.06
108440.01
108757.81
108685.57
108280.96
107638.01
106842.21
105947.3
105001.57
104057.21
103113.59
102189.59
101209.45
100481.41
100119.56
99998.15
100067.98
100531.65
100797.11
100912.11
100938.77
100684.63
100399.27
100225.56
100124.79
100068.41
100037.57
100020.8
100011.5
100006.09
91837.539
91977.276
92129.483
92321.724
92535.786
92857.484
93128.097
93602.08
94010.43
94645.263
95286.342
96132.629
97080.821
98224.22
99530.71
101021.43
102652.27
104350.01
105991.65
107451.62
108589.16
109227.22
109390.02
109172.34
108639.46
107895.15
107020.33
106063.25
105071.43
104082.13
103109.36
102138.47
101128.64
100458.34
100142.35
100042.92
100179.25
100614.49
100842.86
100931.67
100945.13
100651.88
100380.32
100215.35
100119.68
100066.04
100036.56
100020.43
100011.43
100006.16
92503.358
92655.794
92818.609
93027.839
93250.577
93597.879
93882.999
94387.076
94824.142
95494.072
96179.592
97072.142
98077.667
99279.937
100649.87
102197.19
103865.7
105564.85
107165.95
108543.08
109523.68
109972.22
109985.53
109619.28
108963.25
108123.74
107175.53
106161.75
105129.24
104092.27
103092.45
102068.25
101055.67
100442.56
100170.4
100092.79
100295.62
100689.32
100884.58
100951.84
100947.35
100620.81
100362.54
100205.84
100114.94
100063.83
100035.63
100020.1
100011.38
100006.26
93206.31
93371.821
93543.704
93770.416
94001.162
94375.441
94677.143
95212.408
95681.045
96387.925
97120.965
98062.337
99127.663
100390.79
101823.98
103423.41
105118.62
106804
108348.38
109616.32
110410.13
110682
110538.1
110026.04
109253.03
108324.94
107309.33
106244.33
105171.78
104095.37
103061.23
101980.61
100993.12
100435.66
100202.3
100146.81
100411.18
100758.67
100925.16
100979.29
100945.84
100592.01
100346.1
100197.04
100110.52
100061.76
100034.76
100019.81
100011.36
100006.37
93937.927
94118.277
94300.427
94548.69
94789.052
95192.693
95512.405
96081.074
96584.127
97329.857
98113.523
99106.327
100233.88
101559.37
103054.28
104698.81
106407.24
108062.68
109533.1
110656.06
111247.86
111352.79
111045.74
110392.83
109509.77
108499.99
107423.37
106312.93
105194.72
104090.92
103015.32
101881.47
100938.52
100434.23
100238.06
100204.18
100520.73
100823.37
100966.08
101010.85
100931.41
100565.98
100331.01
100188.86
100106.37
100059.83
100033.95
100019.55
100011.36
100006.49
94709.816
94905.967
95098.392
95368.67
95618.649
96053.064
96392.533
96995.761
97536.389
98322.887
99160.413
100207.51
101399.5
102788.19
104341.28
106021.03
107726.99
109334.78
110707.45
111649.36
112041.18
111978.5
111507.71
110720.3
109734.75
108650.32
107519.25
106368.88
105204.43
104077.02
102955.14
101775.78
100891.22
100438.69
100277.91
100266.76
100621.08
100882.16
101004.81
101042.24
100904.84
100542.99
100316.96
100181.12
100102.45
100058.01
100033.21
100019.33
100011.39
100006.64
95518.551
95732.413
95935.521
96230.215
96490.578
96958.274
97319.548
97958.98
98540.801
99370.426
100265.33
101369.74
102628.03
104079.4
105684.49
107386.54
109072.76
110613.66
111855.45
112588.14
112793.01
112553.95
111924.03
111009.53
109929.4
108777.68
107598.53
106407.35
105207.29
104052.62
102879.57
101669.65
100852.32
100451.3
100317.81
100342.43
100709.5
100934.1
101036.32
101064.21
100870.89
100520.27
100303.31
100173.69
100098.74
100056.32
100032.54
100019.15
100011.44
100006.81
96367.656
96601.058
96815.935
97137.479
97408.218
97911.235
98296.696
98973.936
99601.183
100476.78
101432.67
102597.35
103922.86
105434.29
107082.07
108790.68
110438.14
111889.91
112959.89
113473.47
113497.29
113077.8
112295.22
111261.83
110095.31
108884.36
107663.66
106427.88
105202.7
104015.86
102785.42
101570.88
100821.78
100469.82
100358.94
100432.77
100784.87
100978.43
101058.23
101074.91
100833.86
100497.41
100290.03
100166.62
100095.25
100054.75
100031.94
100019.01
100011.53
100007
97260.615
97514.594
97740.503
98091.839
98373.352
98914.476
99327.752
100044.97
100722.58
101647.34
102667.54
103894.8
105286.86
106852.97
108530.75
110227.67
111815.2
113146.31
114007.01
114312.36
114146.38
113549.7
112622.29
111478.66
110234.39
108972.87
107715.91
106436.86
105189.23
103964.7
102672.58
101484.57
100799.01
100493.48
100403.3
100528.05
100850.97
101015.89
101074.71
101079.38
100796.12
100474.87
100277.28
100159.93
100092
100053.32
100031.41
100018.92
100011.64
100007.23
98196.56
98474.016
98711.634
99096.843
99390.554
99973.524
100418.86
101178.31
101911.3
102888.27
103975.28
105266.27
106721.98
108334.04
110025.75
111690.77
113194.59
114363.61
114994
115099.87
114737.45
113969.99
112906.54
111661.77
110349.39
109045.79
107749.68
106439.15
105166.92
103898.27
102548.2
101408.62
100783.4
100521.47
100450.97
100621.57
100908.87
101048.25
101094.53
101080.8
100758.83
100452.98
100265.19
100153.69
100089.01
100052.02
100030.96
100018.88
100011.8
100007.48
99180.263
99486.058
99736.114
100159.68
100467.04
101095.65
101577.81
102381.03
103173.92
104205.73
105360.84
106715.05
108228.74
109874.33
111560.76
113170.89
114560.8
115524.22
115924.86
115828.13
115269.62
114339.6
113149.69
111813.74
110443.95
109104.49
107767.52
106434.59
105136
103817.06
102417.21
101341.89
100776.06
100552.82
100500.53
100710.93
100961.02
101079.62
101117.88
101078.58
100722.83
100432.19
100253.88
100147.91
100086.26
100050.85
100030.57
100018.88
100011.99
100007.77
100220.78
100560.16
100822.46
101289.2
101611.39
102287.34
102812.34
103660.29
104516.72
105605.32
106828.4
108243.21
109805.91
111468.86
113128.11
114657.36
115892.95
116618.04
116800
116491.14
115742.86
114659.94
113354.12
111938.52
110521.55
109145.11
107775.81
106423.03
105096.55
103721.57
102284.08
101283.01
100774.52
100586.36
100550.8
100793.51
101010.1
101112.08
101144.03
101068.76
100688.96
100412.89
100243.49
100142.63
100083.76
100049.8
100030.26
100018.93
100012.23
100008.1
101320.48
101700.37
101976.24
102493.79
102832.37
103555.74
104129.66
105022.94
105945.16
107091.82
108381.21
109851.39
111450.38
113110.77
114718.09
116135.94
117168.81
117645.9
117610.91
117087.32
116157.99
114933.05
113523.18
112040.82
110582.16
109168.23
107777.93
106404.86
105047.19
103609.18
102155.97
101231.99
100777.83
100621.92
100603.13
100868.51
101057.27
101145.46
101171.97
101050.95
100658.18
100395.38
100234.06
100137.83
100081.49
100048.86
100030.01
100019.04
100012.51
100008.48
102498.26
102920.51
103202.44
103779.74
104138.48
104907.72
105536.11
106474.94
107463.92
108669.19
110021.63
111538.68
113157.07
114791.44
116318.05
117583.5
118371.78
118612.35
118348.53
117616.16
116516.57
115161.87
113661.17
112122.76
110619.6
109179.66
107774.28
106380.25
104985.28
103475.26
102042.4
101190.15
100787.69
100658.45
100662.03
100934.65
101100.56
101176.52
101198.98
101025.03
100630.87
100379.72
100225.52
100133.42
100079.39
100048.02
100029.83
100019.2
100012.84
100008.91
103771.08
104237.44
104509.27
105148.93
105534.96
106347.97
107036.33
108021.66
109077.59
110341.16
111751.02
113302.29
114918.58
116499.7
117912.45
118974.39
119499.61
119507.71
119010.39
118078.41
116821.16
115350.59
113772.47
112178.81
110638.48
109183.95
107765.21
106349.1
104908.48
103328.14
101942.17
101157.68
100802.82
100693.75
100730.51
100992.75
101138.65
101200.14
101215.22
100992.19
100607.31
100365.54
100217.61
100129.31
100077.45
100047.27
100029.72
100019.42
100013.24
100009.39
105116.04
105641.08
105907.05
106605.82
107024.81
107879.56
108633.72
109668.85
110791.99
112111.73
113569.54
115136.91
116724.67
118220.38
119475.82
120286.42
120558.25
120320.59
119595.41
118475.84
117075.36
115504.12
113859.06
112209.8
110646.6
109182.7
107751.67
106311.51
104816.4
103175.02
101853.05
101133.22
100821.63
100729.92
100802.71
101045.16
101171.6
101217.55
101222.69
100957.24
100584.97
100352.12
100210.12
100125.42
100075.64
100046.61
100029.68
100019.71
100013.7
100009.95
106550.1
107135.46
107394.17
108152.42
108614.06
109509.83
110334.16
111423.61
112614.12
113984.39
115474.49
117033.6
118561.39
119934.27
120979.48
121514.46
121536.45
121047.31
120104.24
118811.53
117283.95
115626.38
113914.2
112224.06
110646.76
109176.06
107734.64
106267.81
104709.96
103020.61
101773.31
101115.4
100843.52
100767.82
100873.58
101090.9
101199.73
101236.1
101225.23
100922.49
100563.28
100339.24
100202.97
100121.75
100073.97
100046.05
100029.72
100020.07
100014.24
100010.58
108088.27
108734.45
108995.89
109809.54
110324.68
111261.17
112154.91
113296.49
114550.34
115959.3
117458.61
118978.72
120409.7
121612.96
122396.65
122662.55
122421.24
121686.2
120538.8
119089.77
117452.27
115717.76
113942.92
112226.55
110638.77
109165.36
107715.08
106218.22
104589.72
102868.69
101702.13
101103.33
100867.97
100807.07
100939.8
101131.48
101225.84
101256.83
101225.44
100888.19
100542.19
100326.86
100196.15
100118.28
100072.43
100045.59
100029.85
100020.51
100014.86
100011.3
109738.76
110451.38
110729.27
111589.42
112170.02
113148.25
114110.28
115302.91
116604.28
118030.25
119508.55
120953.67
122245.69
123223.78
123719.03
123717.98
123207.66
122237.83
120902.79
119316.13
117584.57
115775.25
113954.69
112217.86
110624.08
109152.08
107693.62
106161.52
104453.15
102725.61
101639.57
101096.69
100894.33
100846.77
101000.49
101168.81
101251.17
101278.13
101220.39
100854.59
100521.75
100314.98
100189.67
100115.02
100071.04
100045.24
100030.07
100021.05
100015.58
100012.12
111528.16
112310.21
112615.59
113514.37
114159.92
115182.95
116210.01
117438.04
118767.32
120183.51