/*--------------------------------*- C++ -*----------------------------------*\
  =========                 |
  \\      /  F ield         | OpenFOAM: The Open Source CFD Toolbox
   \\    /   O peration     | Website:  https://openfoam.org
    \\  /    A nd           | Version:  8
     \\/     M anipulation  |
\*---------------------------------------------------------------------------*/
FoamFile
{
    version     2.0;
    format      ascii;
    class       surfaceScalarField;
    location    "0.0300106";
    object      phi;
}
// * * * * * * * * * * * * * * * * * * * * * * * * * * * * * * * * * * * * * //

dimensions      [1 0 -1 0 0 0 0];

internalField   nonuniform List<scalar> 
39600
(
-0.00021620972
-0.0083665668
0.008559537
-0.00026907986
-0.011657287
0.011707287
-0.00032111087
-0.015297479
0.01534685
-0.00037907509
-0.019746277
0.019801156
-0.00044516384
-0.025331003
0.025393953
-0.00051488712
-0.032441352
0.032506803
-0.00075779292
-0.040200465
0.040439552
-0.0011008267
-0.04850587
0.04884482
-0.001509966
-0.057903463
0.058307628
-0.0019933132
-0.069532336
0.070009679
-0.0025691827
-0.083139284
0.083707795
-0.003256969
-0.099729939
0.10040905
-0.0040749468
-0.11933995
0.12014779
-0.0050551386
-0.14306656
0.14403426
-0.006222977
-0.17127253
0.17242537
-0.0076182555
-0.20525208
0.20662875
-0.0092790418
-0.24577554
0.2474113
-0.011269728
-0.29444757
0.29641027
-0.013613536
-0.35259884
0.35491758
-0.016397189
-0.42230573
0.42505971
-0.019686577
-0.50561968
0.50887634
-0.023609535
-0.60534181
0.60921425
-0.028310118
-0.72448033
0.72912701
-0.033933239
-0.86676005
0.87231687
-0.04067333
-1.0363548
1.04302
-0.048752697
-1.2383753
1.2463809
-0.058448773
-1.4787237
1.4883445
-0.0700851
-1.7644858
1.7760497
-0.084028501
-2.1041494
2.118028
-0.10067463
-2.5080947
2.5246902
-0.12046563
-2.9890871
3.0088345
-0.1438894
-3.5626957
3.5860673
-0.17149332
-4.247864
4.2753961
-0.2039071
-5.0675104
5.0998175
-0.24179055
-6.0493048
6.087
-0.28636728
-7.2265324
7.2706859
-0.33825611
-8.6368896
8.6880522
-0.39714886
-10.33018
10.387944
-0.46451628
-12.363467
12.429313
-0.5391608
-14.804332
14.875947
-0.62084294
-17.745654
17.82457
-0.71206336
-21.265401
21.354284
-0.80795498
-25.465601
25.565611
-0.88612979
-30.489136
30.57146
-0.94695747
-36.543287
36.606327
-0.98187687
-43.833102
43.868268
-0.95958743
-52.57574
52.552486
-0.83808724
-63.076187
62.953811
-0.5555233
-75.694292
75.411214
-90.871711
90.336592
-4.633722e-05
-0.0083365843
-8.5444891e-05
-0.011618299
-0.00013347999
-0.015250336
-0.00018844384
-0.019692606
-0.00025418527
-0.025267237
-0.00033100691
-0.032367268
-0.00057339336
-0.039961171
-0.00089915966
-0.048183713
-0.0012930417
-0.057513838
-0.0017651585
-0.069065332
-0.0023308669
-0.082579564
-0.003010612
-0.099057468
-0.0038161498
-0.11854412
-0.0047852362
-0.14210903
-0.0059374561
-0.17013362
-0.0073143575
-0.20389026
-0.0089473648
-0.2441573
-0.010890944
-0.29251957
-0.013194754
-0.35031492
-0.015938575
-0.41958738
-0.019199032
-0.50239013
-0.023087588
-0.60149075
-0.027744349
-0.71987905
-0.033326571
-0.86123731
-0.039997911
-1.029749
-0.047994154
-1.2304468
-0.057587665
-1.4691962
-0.069098204
-1.7530376
-0.08287956
-2.0904214
-0.099316468
-2.4916964
-0.11883515
-2.9696001
-0.14190633
-3.5396659
-0.16906178
-4.2207717
-0.20091111
-5.0357629
-0.23811865
-6.0123026
-0.28198423
-7.1831327
-0.33263572
-8.5870021
-0.3905048
-10.273447
-0.45682121
-12.298739
-0.53004481
-14.734468
-0.6116406
-17.66683
-0.69971158
-21.179488
-0.79223179
-25.369808
-0.87116279
-30.406258
-0.93380457
-36.478516
-0.97101738
-43.795984
-0.9532471
-52.594451
-0.84014661
-63.190132
-0.57217332
-75.962775
-91.383028
-4.3309834e-05
-0.0083043323
-7.931432e-05
-0.011581485
-0.00012083643
-0.015208846
-0.000167546
-0.019645994
-0.0002228395
-0.025213484
-0.00029447217
-0.032298078
-0.00053749354
-0.039721081
-0.00085818082
-0.047865951
-0.0012444429
-0.057131604
-0.0017045133
-0.068609524
-0.0022506458
-0.082038645
-0.0029017693
-0.098412244
-0.0036786643
-0.11777369
-0.0046077566
-0.14118643
-0.0057091944
-0.16903906
-0.0070237642
-0.20258402
-0.0085861914
-0.24260541
-0.010451384
-0.29066702
-0.012673214
-0.34810727
-0.015321187
-0.41695555
-0.018475956
-0.4992635
-0.022252053
-0.59775013
-0.026769661
-0.71539922
-0.032179808
-0.85586954
-0.038665241
-1.0233095
-0.046462126
-1.2226951
-0.055844493
-1.4598569
-0.067132595
-1.7417885
-0.080675169
-2.0769096
-0.096850446
-2.4755392
-0.11607134
-2.9503937
-0.13879387
-3.5169713
-0.16553223
-4.1940864
-0.19687982
-5.004515
-0.23349362
-5.9759289
-0.27675529
-7.1403897
-0.32653487
-8.538043
-0.38317892
-10.217998
-0.44872556
-12.234932
-0.52018944
-14.666316
-0.60282651
-17.586798
-0.68932771
-21.093527
-0.77831392
-25.278231
-0.85725802
-30.323791
-0.92161896
-36.411758
-0.961443
-43.756636
-0.94848562
-52.60835
-0.8442399
-63.295214
-0.59119397
-76.216338
-91.870178
-4.1864525e-05
-0.0082759698
-8.0191257e-05
-0.01154685
-0.00012216939
-0.015169432
-0.00016871095
-0.019602121
-0.00022107674
-0.025163626
-0.00029477387
-0.03222707
-0.00053573624
-0.039481839
-0.00084252416
-0.047560138
-0.0012070687
-0.056768624
-0.0016417756
-0.068176188
-0.0021584655
-0.081523891
-0.0027746694
-0.097798488
-0.0035170944
-0.11703464
-0.004404666
-0.14030345
-0.0054591718
-0.16798884
-0.0067234336
-0.20132497
-0.0082285607
-0.24110641
-0.010023587
-0.28888387
-0.012168925
-0.34597824
-0.014732379
-0.41441236
-0.017788768
-0.49622969
-0.021441664
-0.5941248
-0.025812778
-0.71106094
-0.031060054
-0.85065789
-0.037369638
-1.0170377
-0.04497831
-1.2151229
-0.054164071
-1.4507037
-0.065245738
-1.7307342
-0.078569725
-2.0636039
-0.094503714
-2.4596112
-0.1134507
-2.9314502
-0.13585004
-3.494591
-0.16220083
-4.1677819
-0.1930828
-4.9737333
-0.22929128
-5.9399997
-0.2718084
-7.0984297
-0.32072814
-8.4899912
-0.37639022
-10.163565
-0.44032965
-12.172974
-0.5115104
-14.598079
-0.59394745
-17.508179
-0.67983389
-21.006476
-0.76610225
-25.189327
-0.84521297
-30.241353
-0.9107992
-36.343397
-0.95358804
-43.714458
-0.9458089
-52.617077
-0.85063355
-63.39122
-0.61274557
-76.454749
-92.332977
-3.3735512e-05
-0.0082455387
-6.7551375e-05
-0.011512013
-0.00010588407
-0.01513105
-0.00014692343
-0.019561573
-0.00019032782
-0.025121436
-0.00026005594
-0.032159209
-0.00049331181
-0.039249005
-0.00078142657
-0.04727277
-0.0011294774
-0.056421051
-0.0015438649
-0.067762734
-0.0020440372
-0.081025041
-0.0026405277
-0.097203355
-0.0033555581
-0.11632117
-0.0042055563
-0.13945487
-0.0052190529
-0.16698045
-0.0064380626
-0.2001124
-0.0078887166
-0.23966374
-0.0096291172
-0.28715237
-0.011697142
-0.34391965
-0.014168929
-0.41195148
-0.017117855
-0.49329398
-0.020648886
-0.59060923
-0.024881362
-0.70684543
-0.029973351
-0.84558399
-0.036116713
-1.0109127
-0.043550306
-1.207705
-0.052554668
-1.4417106
-0.063448984
-1.7198463
-0.076573209
-2.0504784
-0.092288376
-2.4438852
-0.11098416
-2.9127453
-0.13308732
-3.4724986
-0.15907975
-4.141831
-0.18953562
-4.9433857
-0.22534598
-5.9045106
-0.2671467
-7.0572326
-0.31519733
-8.4428624
-0.37032072
-10.10973
-0.43293618
-12.112443
-0.50387706
-14.529954
-0.58500671
-17.430804
-0.6700496
-20.919663
-0.75507664
-25.101599
-0.8347509
-30.158646
-0.90148831
-36.273415
-0.9475441
-43.669113
-0.94516408
-52.620414
-0.85933852
-63.477877
-0.63697964
-76.67764
-92.771091
-3.1849895e-05
-0.0082193959
-6.2611521e-05
-0.011482218
-9.5909325e-05
-0.015098649
-0.00012898628
-0.019528386
-0.00016034609
-0.025090509
-0.00022655922
-0.03209315
-0.00045156951
-0.03902499
-0.00072834617
-0.046997432
-0.0010631529
-0.056088042
-0.0014636055
-0.067364346
-0.0019436225
-0.080546938
-0.0025241936
-0.096624688
-0.0032068851
-0.11564067
-0.0040306508
-0.13863401
-0.0050102278
-0.16600354
-0.0061839426
-0.19894174
-0.0075797264
-0.23827151
-0.0092515955
-0.28548448
-0.011242941
-0.34193396
-0.013626141
-0.40957537
-0.016472229
-0.49045626
-0.019885496
-0.58720584
-0.023985222
-0.70275701
-0.028932104
-0.84064854
-0.034919835
-1.0049357
-0.042192369
-1.2004395
-0.05103179
-1.4328729
-0.061757153
-1.7091172
-0.074702986
-2.0375206
-0.090220901
-2.4283465
-0.10869006
-2.8942593
-0.13052258
-3.4506716
-0.15618667
-4.1162057
-0.18625039
-4.91344
-0.22166661
-5.8694498
-0.2628245
-7.0167183
-0.31013495
-8.3965332
-0.36477397
-10.056445
-0.42655157
-12.052811
-0.49683091
-14.462273
-0.57680054
-17.354081
-0.66068208
-20.83326
-0.74522723
-25.014322
-0.82553392
-30.075439
-0.89404694
-36.201467
-0.94338585
-43.620592
-0.94673691
-52.618028
-0.8706014
-63.554845
-0.66401719
-76.884765
-93.184307
-2.1190674e-05
-0.0081953484
-4.6333925e-05
-0.011454585
-7.5002849e-05
-0.015069305
-0.00010360009
-0.019498673
-0.00012818598
-0.025066441
-0.00019964459
-0.032022129
-0.00042072217
-0.038804058
-0.00069168613
-0.046726041
-0.0010133703
-0.055766013
-0.0014004176
-0.066976923
-0.0018604348
-0.080086941
-0.0024198828
-0.096065509
-0.0030764632
-0.11498447
-0.0038669799
-0.13784376
-0.0048068156
-0.1650642
-0.0059351386
-0.197814
-0.0072776712
-0.23692982
-0.0088870077
-0.2838762
-0.010805321
-0.34001605
-0.01310235
-0.40727831
-0.015850024
-0.48770832
-0.019150374
-0.58390478
-0.023124767
-0.69878125
-0.027935066
-0.83583543
-0.033779954
-0.99908589
-0.04090593
-1.1933043
-0.04959815
-1.4241663
-0.060174456
-1.6985217
-0.072962548
-2.0247063
-0.088306685
-2.4129706
-0.10657286
-2.87597
-0.12816102
-3.4290868
-0.15352876
-4.0908792
-0.18323547
-4.8838738
-0.21828455
-5.8347909
-0.2588352
-6.9768509
-0.30553362
-8.3508815
-0.35973176
-10.003753
-0.42089354
-11.993937
-0.49063684
-14.394966
-0.56939745
-17.278229
-0.65232838
-20.747964
-0.73660928
-24.927401
-0.81779839
-29.991483
-0.88843329
-36.127492
-0.9411717
-43.568717
-0.95056188
-52.609608
-0.88439195
-63.621852
-0.69394988
-77.075758
-93.572228
-1.955989e-05
-0.0081736343
-4.4429023e-05
-0.011429741
-6.9858941e-05
-0.015043648
-9.5334594e-05
-0.019473755
-0.00011117056
-0.025050793
-0.00018441783
-0.031949333
-0.00039826932
-0.038589756
-0.00065770372
-0.046466082
-0.000966086
-0.055456933
-0.0013380788
-0.066604227
-0.0017802842
-0.079643862
-0.0023112988
-0.095533636
-0.0029438588
-0.11435088
-0.0037048632
-0.13708158
-0.0046084986
-0.1641592
-0.0056938518
-0.19672697
-0.0069858767
-0.23563568
-0.0085343829
-0.2823247
-0.010382196
-0.33816516
-0.012597234
-0.40505971
-0.015250157
-0.48505119
-0.018444229
-0.58070569
-0.022301107
-0.69491814
-0.026984905
-0.83114334
-0.03269949
-0.99336002
-0.03969461
-1.186293
-0.048258339
-1.4155808
-0.058706065
-1.6880471
-0.071359262
-2.0120191
-0.086551601
-2.3977401
-0.10464018
-2.8578548
-0.12601122
-3.4077186
-0.1511145
-4.0658209
-0.18053749
-4.8546152
-0.2152163
-5.8005314
-0.25522987
-6.9375532
-0.30140001
-8.3058052
-0.35520478
-9.9516045
-0.41593667
-11.93562
-0.48520607
-14.328066
-0.56279133
-17.203307
-0.64504032
-20.663385
-0.7293456
-24.840582
-0.81159556
-29.906622
-0.88455796
-36.05147
-0.94096713
-43.513204
-0.95667411
-52.594879
-0.90089296
-63.678468
-0.72692971
-77.25028
-93.934547
-1.2032907e-05
-0.0081523133
-3.3712704e-05
-0.011406089
-5.5027781e-05
-0.015019868
-7.5580413e-05
-0.019451797
-8.393766e-05
-0.025041188
-0.00015925336
-0.03187344
-0.00036679302
-0.038380738
-0.00061705019
-0.046214801
-0.00091421071
-0.055158357
-0.0012732284
-0.066243954
-0.0016973134
-0.079218126
-0.0022087257
-0.095020227
-0.0028153927
-0.11374211
-0.0035466036
-0.13634774
-0.004414982
-0.1632878
-0.0054593496
-0.19567891
-0.0067025542
-0.23438815
-0.0081948856
-0.28082724
-0.0099755261
-0.33637772
-0.012112543
-0.4029142
-0.014675898
-0.48247753
-0.017769213
-0.57760005
-0.021516247
-0.69115641
-0.026085031
-0.82655689
-0.031682596
-0.98774114
-0.038563872
-1.1793854
-0.047019218
-1.4070938
-0.057359406
-1.677671
-0.069899686
-1.9994372
-0.084964585
-2.382633
-0.1028996
-2.8398939
-0.12408032
-3.3865447
-0.14895224
-4.0410056
-0.17822408
-4.8255441
-0.21247675
-5.7667363
-0.25208596
-6.8987019
-0.29766184
-8.2613486
-0.35123073
-9.8998379
-0.41163981
-11.877753
-0.48053838
-14.261543
-0.55705499
-17.128779
-0.63885084
-20.579296
-0.72342039
-24.753631
-0.80692767
-29.820698
-0.88246177
-35.973057
-0.94283434
-43.45374
-0.9651823
-52.573516
-0.92014383
-63.724344
-0.76307801
-77.407914
-94.270867
-1.1553185e-05
-0.0081335477
-3.1204886e-05
-0.011385757
-4.9878899e-05
-0.015000632
-6.5799709e-05
-0.019435456
-6.6701009e-05
-0.025039789
-0.00014377676
-0.031795669
-0.00034338142
-0.038179734
-0.00058191679
-0.045974638
-0.00086701944
-0.054871509
-0.0012112115
-0.065897773
-0.0016180576
-0.078809031
-0.0021102785
-0.094525392
-0.0026932952
-0.113156
-0.0033971404
-0.13564026
-0.0042329333
-0.16244773
-0.005238672
-0.19466803
-0.0064363809
-0.23318417
-0.0078739946
-0.27938169
-0.0095916048
-0.33465085
-0.01165408
-0.40084065
-0.014132766
-0.47998573
-0.017132068
-0.57458528
-0.020778306
-0.68749194
-0.025242939
-0.82207055
-0.030739086
-0.98221912
-0.03752463
-1.1725685
-0.045890838
-1.3986912
-0.056146231
-1.6673749
-0.068596355
-1.9869409
-0.083557738
-2.3676268
-0.10136467
-2.822062
-0.12238273
-3.3655369
-0.14705253
-4.0164021
-0.17616321
-4.7966678
-0.21003193
-5.7333591
-0.24919662
-6.8603262
-0.2946008
-8.217092
-0.34774298
-9.8486068
-0.40779655
-11.820323
-0.47675853
-14.195051
-0.55223048
-17.054615
-0.63381748
-20.495391
-0.71880204
-24.666312
-0.80388061
-29.733418
-0.88221908
-35.892171
-0.94683667
-43.390025
-0.97620958
-52.545137
-0.9422979
-63.759099
-0.80248691
-77.5483
-94.580698
-5.7547278e-06
-0.0081151678
-2.2733118e-05
-0.011366776
-3.7064017e-05
-0.014984222
-4.7939145e-05
-0.019422776
-4.2980629e-05
-0.025043308
-0.00012567849
-0.031711502
-0.00031784061
-0.037985512
-0.0005484296
-0.045742067
-0.0008225871
-0.054595042
-0.0011540013
-0.065563867
-0.0015453879
-0.078414812
-0.0020195104
-0.094047981
-0.0025806605
-0.11259112
-0.0032586807
-0.13495771
-0.0040634746
-0.1616376
-0.0050325641
-0.19369246
-0.00618688
-0.23202216
-0.0075731088
-0.27798622
-0.009231151
-0.33298139
-0.011223158
-0.39883484
-0.013621521
-0.477571
-0.016534069
-0.57165354
-0.020088979
-0.68391468
-0.024462531
-0.81767099
-0.02987208
-0.97677932
-0.036580697
-1.1658245
-0.044879496
-1.3903524
-0.05507229
-1.6571386
-0.067456153
-1.9745097
-0.08233792
-2.3527029
-0.10004194
-2.8043395
-0.12092629
-3.3446719
-0.14544628
-3.9919703
-0.17437817
-4.7680153
-0.20791645
-5.7003548
-0.24679448
-6.822275
-0.29203552
-8.1730185
-0.34418745
-9.7984444
-0.40400827
-11.763083
-0.47416394
-14.127698
-0.54865905
-16.979872
-0.63008992
-20.41158
-0.71546303
-24.578429
-0.80245898
-29.644388
-0.88388248
-35.808631
-0.95306174
-43.321775
-0.98979352
-52.509413
-0.96743287
-63.782312
-0.84540725
-77.670911
-94.863679
-2.050722e-06
-0.0080989192
-1.5730029e-05
-0.011351003
-2.5187317e-05
-0.014972518
-3.022074e-05
-0.019416278
-1.9323775e-05
-0.025052938
-0.00010739986
-0.031621795
-0.00029162236
-0.037799082
-0.00051335375
-0.045518152
-0.00077637662
-0.054329485
-0.0010952686
-0.065242201
-0.0014717285
-0.078035189
-0.0019287019
-0.093587297
-0.002468691
-0.11204681
-0.0031219866
-0.13429923
-0.0038974425
-0.16085606
-0.0048318385
-0.19275079
-0.0059458811
-0.23089943
-0.0072826882
-0.27663872
-0.008879531
-0.33137169
-0.010805211
-0.39689378
-0.013134287
-0.47522377
-0.01596801
-0.56879858
-0.019441594
-0.68041642
-0.023736558
-0.81334745
-0.029077279
-0.97140559
-0.035728433
-1.1591352
-0.043981993
-1.3820564
-0.054135228
-1.6469399
-0.066476935
-1.9621196
-0.081303776
-2.3378358
-0.098929877
-2.7867001
-0.11970974
-3.323917
-0.14420275
-3.9675874
-0.17288506
-4.739648
-0.2061735
-5.6676386
-0.24483168
-6.7844809
-0.28997386
-8.1290734
-0.34168904
-9.7487638
-0.4016316
-11.705607
-0.4715744
-14.060761
-0.54669783
-16.903121
-0.62782329
-20.327621
-0.713461
-24.489918
-0.80257162
-29.553548
-0.88752197
-35.722118
-0.96157947
-43.248663
-1.0060846
-52.465927
-0.99567338
-63.793588
-0.89186907
-77.77531
-95.119238
1.7166998e-06
-0.0080829573
-1.0001441e-05
-0.011336775
-1.5617691e-05
-0.014963996
-1.5301319e-05
-0.019414647
-1.9336419e-06
-0.025064488
-9.7390131e-05
-0.031524619
-0.00027530095
-0.037618692
-0.00048991899
-0.045301305
-0.00074275659
-0.054073833
-0.0010505362
-0.064931513
-0.0014125033
-0.077669746
-0.0018526529
-0.093143153
-0.0023722322
-0.11152255
-0.003001805
-0.13366408
-0.0037500197
-0.16010128
-0.0046514949
-0.19184148
-0.0057219472
-0.22981959
-0.0070065531
-0.27534283
-0.0085422601
-0.32982242
-0.010406019
-0.39501392
-0.012673447
-0.47293751
-0.015444242
-0.56600607
-0.018852397
-0.67698328
-0.023084247
-0.80908716
-0.028373061
-0.96608418
-0.034987714
-1.1524833
-0.043218339
-1.3737851
-0.053355562
-1.6367601
-0.065678501
-1.9497532
-0.080474719
-2.3230075
-0.098050076
-2.7691213
-0.11875035
-3.3032549
-0.14322369
-3.9432631
-0.17171489
-4.711516
-0.20482672
-5.635143
-0.24331783
-6.7469027
-0.28844075
-8.0853331
-0.33997532
-9.6992168
-0.40000902
-11.647916
-0.46971006
-13.993772
-0.54538715
-16.825625
-0.6270772
-20.242843
-0.71328549
-24.400348
-0.80396637
-29.460791
-0.89319481
-35.632527
-0.97247266
-43.170334
-1.0251144
-52.414318
-1.027175
-63.792405
-0.94208497
-77.861004
-95.34683
3.4755608e-06
-0.0080690969
-6.2569257e-06
-0.011325609
-8.573448e-06
-0.014960152
-1.9929997e-06
-0.019419913
1.2761469e-05
-0.025078101
-8.8308227e-05
-0.031421911
-0.00025875489
-0.037446109
-0.00046462698
-0.045093151
-0.00070716312
-0.053828653
-0.0010029833
-0.06463269
-0.0013505969
-0.077318653
-0.0017742658
-0.09271538
-0.0022739986
-0.11101803
-0.0028801895
-0.13305214
-0.0036002978
-0.15937445
-0.0044666171
-0.19096709
-0.0054918384
-0.22878467
-0.0067250604
-0.27409776
-0.0082121828
-0.3283211
-0.010019358
-0.39318982
-0.012224665
-0.47071242
-0.014941742
-0.56326606
-0.01830445
-0.67359435
-0.022492594
-0.80486918
-0.027748785
-0.96079423
-0.034348403
-1.1458455
-0.042579389
-1.365513
-0.052724932
-1.6265719
-0.065053175
-1.9373832
-0.079842782
-2.3081908
-0.09739438
-2.7515709
-0.11811494
-3.282579
-0.14250851
-3.9190541
-0.17087987
-4.6835414
-0.20377011
-5.6029039
-0.24236215
-6.7092756
-0.28746041
-8.0416975
-0.33885291
-9.6497611
-0.39915236
-11.589834
-0.46866456
-13.926844
-0.54485703
-16.747209
-0.62765967
-20.157001
-0.7152784
-24.309036
-0.80671497
-29.366689
-0.90094768
-35.538429
-0.98580654
-43.086418
-1.0470682
-52.354112
-1.0620312
-63.778335
-0.99623759
-77.927409
-95.545941
7.7452372e-06
-0.008057709
1.3164626e-06
-0.011317636
3.767585e-06
-0.014961104
1.797296e-05
-0.019432765
3.2933421e-05
-0.025091976
-7.4477501e-05
-0.031312889
-0.00023800737
-0.037280504
-0.00043692461
-0.044892007
-0.00066994877
-0.053593008
-0.00095539685
-0.064344273
-0.0012896645
-0.076980925
-0.0016979799
-0.092302988
-0.0021792506
-0.11053199
-0.0027638738
-0.1324618
-0.003453547
-0.15867809
-0.0042813929
-0.19013108
-0.005269641
-0.22778673
-0.0064639994
-0.27289181
-0.0079088583
-0.32686259
-0.0096675448
-0.39141516
-0.011817937
-0.46854372
-0.014479943
-0.56058318
-0.017804563
-0.67024624
-0.021971592
-0.80067573
-0.027214487
-0.95552163
-0.033820953
-1.1392055
-0.042076387
-1.357222
-0.052253215
-1.6163591
-0.064611356
-1.9249921
-0.079419289
-2.2933661
-0.096971425
-2.7340306
-0.11776171
-3.2618615
-0.14206254
-3.8949795
-0.17031044
-4.6557344
-0.20319861
-5.5707026
-0.24186818
-6.6716328
-0.28702548
-7.9980399
-0.33848979
-9.6001489
-0.39897003
-11.531432
-0.46847669
-13.859739
-0.54522633
-16.668485
-0.62909734
-20.070347
-0.71869449
-24.216032
-0.8118117
-29.269492
-0.9107995
-35.439797
-1.001678
-42.996479
-1.0719813
-52.284899
-1.1003948
-63.750825
-1.0544174
-77.974003
-95.715904
1.0610279e-05
-0.0080477272
6.0169612e-06
-0.011311715
1.2102636e-05
-0.014965757
3.3477443e-05
-0.019452958
4.6034688e-05
-0.025103487
-6.8548519e-05
-0.031196709
-0.00022566016
-0.037121346
-0.0004174464
-0.044698051
-0.00064125795
-0.053366615
-0.00091632594
-0.064066329
-0.0012378287
-0.076656038
-0.0016318696
-0.091904999
-0.0020964772
-0.11006274
-0.0026600656
-0.13189271
-0.0033219903
-0.15800958
-0.0041182951
-0.18932707
-0.0050753883
-0.22682023
-0.0062361412
-0.27171961
-0.0076409599
-0.32544408
-0.0093561945
-0.38968376
-0.011463386
-0.46641779
-0.014080178
-0.55794499
-0.017369822
-0.6669325
-0.021527134
-0.79649158
-0.026782022
-0.95023684
-0.033418873
-1.1325356
-0.041721485
-1.3488849
-0.051954661
-1.6060924
-0.064365263
-1.9125531
-0.079217352
-2.2785021
-0.09682164
-2.7164405
-0.11765545
-3.2411269
-0.14193294
-3.8709608
-0.17005063
-4.6280865
-0.20313059
-5.5383504
-0.24186234
-6.6339845
-0.28717264
-7.9542309
-0.33896474
-9.5501697
-0.39946084
-11.472944
-0.46918708
-13.792406
-0.54656028
-16.589138
-0.63156291
-19.982764
-0.72324543
-24.121167
-0.81959979
-29.168998
-0.92277058
-35.336954
-1.0201898
-42.900092
-1.1000009
-52.206215
-1.1423893
-63.709347
-1.1168915
-78.000121
-95.856073
1.4255169e-05
-0.0080398812
1.2391093e-05
-0.011308522
2.2644072e-05
-0.01497461
5.284024e-05
-0.01948213
6.2166562e-05
-0.025111709
-5.7038375e-05
-0.031075902
-0.00020717351
-0.036969243
-0.00039180123
-0.044511421
-0.00060683339
-0.053149177
-0.00087238687
-0.063798083
-0.001182257
-0.07634299
-0.0015628019
-0.091520701
-0.0020108866
-0.10961028
-0.0025520692
-0.1313462
-0.0031911165
-0.15736444
-0.0039645803
-0.18854595
-0.0048932181
-0.2258827
-0.0060205461
-0.27058184
-0.007390071
-0.32406244
-0.0090683662
-0.38799154
-0.01114021
-0.46433022
-0.013726604
-0.55534108
-0.016990821
-0.6636489
-0.021152075
-0.79230905
-0.026444458
-0.94492083
-0.033134264
-1.12582
-0.041509414
-1.3404835
-0.051821492
-1.5957562
-0.064309101
-1.9000477
-0.079227958
-2.263582
-0.096970791
-2.6987335
-0.11778959
-3.2204428
-0.14200402
-3.8470431
-0.1702587
-4.6003277
-0.20348216
-5.5059065
-0.24235074
-6.596262
-0.28784356
-7.9103901
-0.3400752
-9.4997452
-0.40077631
-11.414037
-0.4708218
-13.724281
-0.54894119
-16.508914
-0.63530113
-19.893944
-0.7295442
-24.024075
-0.82937068
-29.065277
-0.93707096
-35.230159
-1.0414617
-42.79687
-1.1312851
-52.117541
-1.1881641
-63.653379
-1.1836914
-78.005214
-95.965683
1.6674535e-05
-0.0080331159
1.6290208e-05
-0.01130696
2.9322645e-05
-0.014986321
6.746389e-05
-0.019519341
7.0632072e-05
-0.025113805
-4.6610604e-05
-0.030957283
-0.00019153822
-0.036822542
-0.000370857
-0.044330275
-0.0005786473
-0.052939129
-0.00083613081
-0.063538099
-0.0011355994
-0.076040514
-0.0015041685
-0.091148626
-0.0019349536
-0.10917534
-0.0024558984
-0.13082035
-0.0030751526
-0.15673924
-0.0038268851
-0.18778756
-0.0047300365
-0.22497137
-0.0058285868
-0.26947334
-0.007167315
-0.32271192
-0.0088162833
-0.38632875
-0.01086118
-0.46226956
-0.013428579
-0.552756
-0.016685806
-0.66037224
-0.020865176
-0.78810849
-0.026212692
-0.93955025
-0.032984025
-1.1190238
-0.041454354
-1.331989
-0.051869035
-1.5853208
-0.064456655
-1.8874459
-0.079480569
-2.248558
-0.097345038
-2.6809226
-0.11821949
-3.1997288
-0.14238021
-3.8232002
-0.17088718
-4.5723465
-0.20427432
-5.4733418
-0.24334342
-6.5583881
-0.28877356
-7.8667105
-0.34160987
-9.4487168
-0.40314893
-11.35416
-0.47344156
-13.65527
-0.5525678
-16.427493
-0.64036534
-19.803666
-0.73754623
-23.92444
-0.84119106
-28.958405
-0.95387807
-35.118565
-1.0655885
-42.686397
-1.165898
-52.018387
-1.2379012
-63.582284
-1.255184
-77.988551
-96.04403
1.9199248e-05
-0.0080277662
2.0371724e-05
-0.011307162
3.5986298e-05
-0.015000761
8.2220091e-05
-0.019564836
7.7682566e-05
-0.025108407
-3.4663958e-05
-0.030843847
-0.00017493783
-0.036680649
-0.00034921904
-0.044154351
-0.00054994207
-0.052736341
-0.00079952762
-0.063286222
-0.0010889575
-0.075748355
-0.0014460316
-0.090788317
-0.0018619003
-0.10875571
-0.0023659683
-0.13031167
-0.0029673721
-0.15613279
-0.0036972488
-0.18705117
-0.0045773207
-0.2240839
-0.0056509985
-0.26839118
-0.0069646422
-0.3213887
-0.0085852149
-0.38469742
-0.010607166
-0.46023584
-0.013167363
-0.55018302
-0.016444877
-0.65708108
-0.020662136
-0.78387663
-0.026081759
-0.9341149
-0.032962976
-1.1121258
-0.041552521
-1.3233845
-0.052092583
-1.5747698
-0.064802441
-1.8747319
-0.080014084
-2.2333633
-0.097937966
-2.6630801
-0.11880578
-3.1790533
-0.1431951
-3.7991487
-0.17188602
-4.5442228
-0.20549312
-5.4405984
-0.24484316
-6.5202926
-0.29030368
-7.8230387
-0.34363313
-9.397216
-0.4066578
-11.292632
-0.47726721
-13.584961
-0.55768221
-16.344579
-0.64688668
-19.711848
-0.74712102
-23.822109
-0.85513613
-28.847779
-0.97320747
-35.001665
-1.0926575
-42.568203
-1.2039865
-51.90821
-1.2916923
-63.495481
-1.3314311
-77.949427
-96.09032
2.2267453e-05
-0.0080245676
2.5629981e-05
-0.011309891
4.4040281e-05
-0.01501826
9.8804192e-05
-0.019619171
8.6717623e-05
-0.025095485
-2.5791274e-05
-0.03073022
-0.00016082631
-0.036544145
-0.00032972949
-0.043984
-0.0005233504
-0.05254083
-0.0007654002
-0.063042135
-0.0010456382
-0.075465621
-0.0013902251
-0.090440828
-0.0017926089
-0.10834991
-0.0022830931
-0.12981724
-0.0028678499
-0.15554322
-0.0035790331
-0.18633481
-0.0044393991
-0.2232171
-0.005492349
-0.26733046
-0.0067819568
-0.32009001
-0.0083758667
-0.38309306
-0.01038223
-0.45821782
-0.012949333
-0.54760324
-0.016264358
-0.65375257
-0.020550461
-0.77957637
-0.026070913
-0.92857944
-0.03308051
-1.1051014
-0.041812013
-1.3146409
-0.052500682
-1.5640736
-0.06537622
-1.8618535
-0.080749395
-2.2180191
-0.098785406
-2.6451444
-0.11967335
-3.1583732
-0.1443587
-3.7748237
-0.1732711
-4.5159092
-0.20715462
-5.4076076
-0.2468767
-6.481851
-0.29259933
-7.7790626
-0.34673525
-9.3448195
-0.41084287
-11.23026
-0.48313055
-13.511341
-0.5644714
-16.260492
-0.6552358
-19.618143
-0.75804613
-23.717342
-0.871259
-28.733864
-0.99511444
-34.878979
-1.1227704
-42.441802
-1.2456781
-51.786448
-1.3497513
-63.392304
-1.412677
-77.887112
-96.103668
2.4595826e-05
-0.0080226567
2.9935142e-05
-0.011314622
5.0796645e-05
-0.015038255
0.00011312583
-0.019681154
9.177717e-05
-0.025073376
-2.0598264e-05
-0.030616905
-0.00015082961
-0.036412589
-0.00031490272
-0.043818704
-0.00050222727
-0.052351854
-0.0007375843
-0.062805
-0.0010095394
-0.07519152
-0.0013436292
-0.090104217
-0.0017339992
-0.10795667
-0.0022116252
-0.12933609
-0.0027822062
-0.15496885
-0.0034769941
-0.18563501
-0.0043211018
-0.22236762
-0.0053538978
-0.26629169
-0.0066197008
-0.31881773
-0.0082007769
-0.38150502
-0.010212082
-0.45619927
-0.012800859
-0.54500705
-0.016163072
-0.65038294
-0.020539996
-0.77519203
-0.026185856
-0.92292603
-0.033342178
-1.0979387
-0.042242687
-1.3057373
-0.053099609
-1.5532185
-0.066194752
-1.8487693
-0.081684081
-2.2025798
-0.09976867
-2.6271838
-0.12095146
-3.1374164
-0.14587845
-3.7502929
-0.17507517
-4.4873439
-0.20930638
-5.3742861
-0.24948192
-6.442974
-0.29574867
-7.7344659
-0.35074561
-9.291486
-0.41560487
-11.167301
-0.48961955
-13.43498
-0.57273037
-16.174443
-0.66569152
-19.521884
-0.77043781
-23.610097
-0.88962363
-28.61437
-1.0196769
-34.750059
-1.1560403
-42.306688
-1.2911111
-51.65252
-1.412231
-63.272072
-1.4991045
-77.800841
-96.083189
2.7639565e-05
-0.0080224167
3.546081e-05
-0.011321521
5.9283922e-05
-0.015061061
0.00012867384
-0.019749979
9.7962008e-05
-0.025041896
-1.0872011e-05
-0.030507145
-0.00013716009
-0.036285013
-0.00029734451
-0.043657401
-0.0004791387
-0.052168607
-0.00070817785
-0.062574428
-0.0009716105
-0.07492626
-0.0012970466
-0.089776623
-0.0016782924
-0.107573
-0.002144291
-0.12886712
-0.0027022897
-0.1544074
-0.003383068
-0.18495065
-0.0042114822
-0.22153481
-0.0052248263
-0.26527315
-0.0064784234
-0.31755818
-0.0080636487
-0.37991317
-0.010093259
-0.45416259
-0.012720654
-0.54237241
-0.016148499
-0.64694797
-0.020629107
-0.77070453
-0.026414296
-0.91713422
-0.033745455
-1.0906028
-0.042840433
-1.2966416
-0.053909146
-1.5421522
-0.06719119
-1.8355056
-0.082840974
-2.1869942
-0.10102572
-2.6091305
-0.12254811
-3.1161375
-0.14775818
-3.7255051
-0.17730501
-4.458453
-0.2119504
-5.3405533
-0.25264798
-6.403579
-0.29963049
-7.6890719
-0.35545044
-9.2372918
-0.42130501
-11.103345
-0.49689174
-13.357266
-0.58207115
-16.086399
-0.67812434
-19.422436
-0.78483495
-23.499377
-0.91028962
-28.488783
-1.0469678
-34.614486
-1.19258
-42.162332
-1.3404278
-51.505813
-1.4792839
-63.134094
-1.5909574
-77.689762
-96.027908
2.8340569e-05
-0.0080222503
3.675846e-05
-0.01132938
6.238989e-05
-0.01508587
0.00013573157
-0.019823054
9.6278372e-05
-0.025001659
-1.0819423e-05
-0.030399323
-0.00013369758
-0.036161089
-0.00029041718
-0.043499845
-0.00046718704
-0.05199061
-0.00069147443
-0.062348914
-0.000947384
-0.074668804
-0.001263858
-0.089458468
-0.0016365585
-0.10719823
-0.0020924491
-0.12840888
-0.0026399945
-0.15385733
-0.0033096115
-0.18427784
-0.004122802
-0.22071844
-0.0051232941
-0.26426939
-0.0063777405
-0.31630049
-0.0079747989
-0.37831304
-0.010032192
-0.45210251
-0.012713764
-0.53968872
-0.016231123
-0.64342925
-0.020834436
-0.76610068
-0.026781679
-0.91118716
-0.03431318
-1.0830739
-0.043613216
-1.2873487
-0.054925465
-1.5308531
-0.06838005
-1.822085
-0.084148848
-2.1713059
-0.1026744
-2.5907544
-0.12447211
-3.0946098
-0.1500094
-3.7004209
-0.17997207
-4.429172
-0.21510289
-5.3063438
-0.25603371
-6.363957
-0.30413264
-7.6424721
-0.3609765
-9.1820555
-0.42794473
-11.038191
-0.50511313
-13.277786
-0.59241863
-15.996394
-0.69143112
-19.320012
-0.80251971
-23.383907
-0.93315544
-28.358064
-1.0770875
-34.471596
-1.2325232
-42.008186
-1.3937754
-51.345699
-1.5511535
-62.97758
-1.6884489
-77.55305
-95.93688
3.1442899e-05
-0.0080237138
4.2513603e-05
-0.011339806
7.2539317e-05
-0.015114953
0.00014953164
-0.019899816
0.00010344408
-0.024955167
-1.702471e-06
-0.030293748
-0.00012056729
-0.036041354
-0.00027390621
-0.043345878
-0.0004464446
-0.051817115
-0.00066667991
-0.062127722
-0.00091724374
-0.074417101
-0.0012263963
-0.089147905
-0.0015912549
-0.10683192
-0.0020384072
-0.12795994
-0.0025771946
-0.15331671
-0.0032375132
-0.18361576
-0.0040414797
-0.21991225
-0.0050387694
-0.2632695
-0.0063004287
-0.31503606
-0.0079156159
-0.37669504
-0.010009322
-0.45000627
-0.012757807
-0.53693828
-0.016387418
-0.63979859
-0.021145088
-0.76134296
-0.027284802
-0.90504869
-0.035030694
-1.0753324
-0.044566107
-1.277821
-0.056103384
-1.5193338
-0.06976881
-1.8084631