/*--------------------------------*- C++ -*----------------------------------*\
  =========                 |
  \\      /  F ield         | OpenFOAM: The Open Source CFD Toolbox
   \\    /   O peration     | Website:  https://openfoam.org
    \\  /    A nd           | Version:  8
     \\/     M anipulation  |
\*---------------------------------------------------------------------------*/
FoamFile
{
    version     2.0;
    format      ascii;
    class       pointVectorField;
    location    "0.0300106";
    object      pointDisplacement;
}
// * * * * * * * * * * * * * * * * * * * * * * * * * * * * * * * * * * * * * //

dimensions      [0 1 0 0 0 0 0];

internalField   nonuniform List<vector> 
40800
(
(-0.0025576635 0 -0.0020418889)
(-0.0025496128 0 -0.0016870302)
(-0.0025492992 0 -0.0016891243)
(-0.0025574682 0 -0.0020517153)
(-0.0025492698 0 -0.0016896953)
(-0.0025574438 0 -0.002052605)
(-0.0025492055 0 -0.001690556)
(-0.0025573824 0 -0.0020536321)
(-0.0025490867 0 -0.0016916296)
(-0.002557268 0 -0.0020549046)
(-0.0025488899 0 -0.0016929724)
(-0.0025570777 0 -0.0020564811)
(-0.0025485824 0 -0.0016946591)
(-0.0025567794 0 -0.0020584439)
(-0.0025481194 0 -0.0016967891)
(-0.0025563291 0 -0.0020609008)
(-0.0025474394 0 -0.0016994943)
(-0.0025556665 0 -0.0020639943)
(-0.0025464595 0 -0.0017029525)
(-0.00255471 0 -0.002067914)
(-0.0025450677 0 -0.0017074045)
(-0.0025533496 0 -0.0020729136)
(-0.0025431145 0 -0.0017131777)
(-0.002551438 0 -0.0020793339)
(-0.0025404015 0 -0.0017207196)
(-0.0025487798 0 -0.0020876346)
(-0.0025366681 0 -0.0017306415)
(-0.0025451177 0 -0.0020984369)
(-0.0025315746 0 -0.0017437793)
(-0.0025401165 0 -0.0021125817)
(-0.0025246843 0 -0.0017612725)
(-0.0025333442 0 -0.0021312059)
(-0.0025154435 0 -0.0017846677)
(-0.0025242522 0 -0.0021558429)
(-0.0025031617 0 -0.0018160575)
(-0.0025121551 0 -0.0021885563)
(-0.0024869977 0 -0.0018582407)
(-0.0024962152 0 -0.0022320932)
(-0.0024659541 0 -0.0019149103)
(-0.002475436 0 -0.0022900648)
(-0.0024388918 0 -0.0019908589)
(-0.0024486731 0 -0.0023671438)
(-0.0024045709 0 -0.0020921496)
(-0.0024146724 0 -0.0024692244)
(-0.0023617302 0 -0.0022261814)
(-0.0023721461 0 -0.0026034829)
(-0.0023092111 0 -0.0024015295)
(-0.0023198929 0 -0.0027782217)
(-0.0022461194 0 -0.0026274273)
(-0.0022569601 0 -0.0030023658)
(-0.0021720033 0 -0.0029127678)
(-0.0021828268 0 -0.0032844869)
(-0.0020870116 0 -0.003264512)
(-0.0020975733 0 -0.0036312379)
(-0.0019919815 0 -0.0036857491)
(-0.0020019885 0 -0.0040454221)
(-0.0018884255 0 -0.0041737346)
(-0.001897574 0 -0.0045240407)
(-0.0017784403 0 -0.0047182504)
(-0.0017864664 0 -0.0050566427)
(-0.001664505 0 -0.0053014568)
(-0.0016712338 0 -0.005625177)
(-0.0015492211 0 -0.0058993693)
(-0.0015545955 0 -0.0062055389)
(-0.0014350987 0 -0.0064846661)
(-0.001439182 0 -0.0067705052)
(-0.001324372 0 -0.0070301266)
(-0.0013273245 0 -0.0072932267)
(-0.0012187724 0 -0.0075124344)
(-0.0012208017 0 -0.0077511094)
(-0.0011194685 0 -0.0079142352)
(-0.0011207912 0 -0.0081276713)
(-0.0010271035 0 -0.0082247857)
(-0.0010279186 0 -0.0084130976)
(-0.0009417881 0 -0.0084396664)
(-0.00094225587 0 -0.0086037989)
(-0.00086318784 0 -0.0085580953)
(-0.00086342371 0 -0.0086995388)
(-0.00079062046 0 -0.0085808714)
(-0.00079069722 0 -0.0087013723)
(-0.00072329801 0 -0.0085093649)
(-0.00072326947 0 -0.0086108557)
(-0.00066029318 0 -0.0083433977)
(-0.00066019754 0 -0.0084277789)
(-0.00060019238 0 -0.0080769664)
(-0.00060001075 0 -0.0081456617)
(-0.00054194232 0 -0.0077039544)
(-0.00054169399 0 -0.0077585357)
(-0.00048476265 0 -0.0072170567)
(-0.00048450403 0 -0.0072592739)
(-0.00042631277 0 -0.0065943026)
(-0.00042601375 0 -0.0066252077)
(-0.00036437976 0 -0.0058112027)
(-0.00036407809 0 -0.0058324884)
(-0.00029573981 0 -0.0048280564)
(-0.0002954256 0 -0.0048410427)
(-0.00021603622 0 -0.0035863693)
(-0.00021576872 0 -0.003593126)
(-0.0001197934 0 -0.0020039654)
(-0.00011971341 0 -0.0020074386)
(0 0 0)
(0 0 0)
(-0.0025403724 0 -0.0013398394)
(-0.002540066 0 -0.0013419001)
(-0.0025400345 0 -0.0013423399)
(-0.0025399634 0 -0.0013428869)
(-0.0025398358 0 -0.0013435813)
(-0.0025396276 0 -0.0013444724)
(-0.0025393053 0 -0.0013456245)
(-0.0025388231 0 -0.0013471255)
(-0.0025381185 0 -0.0013490946)
(-0.0025371069 0 -0.0013516955)
(-0.0025356743 0 -0.0013551525)
(-0.0025336689 0 -0.0013597742)
(-0.0025308894 0 -0.0013659858)
(-0.0025270713 0 -0.0013743744)
(-0.0025218711 0 -0.0013857503)
(-0.0025148472 0 -0.0014012285)
(-0.0025054406 0 -0.0014223401)
(-0.0024929563 0 -0.0014511707)
(-0.0024765492 0 -0.0014905321)
(-0.0024552216 0 -0.0015441612)
(-0.0024278392 0 -0.0016169325)
(-0.0023931756 0 -0.001715045)
(-0.0023499957 0 -0.001846096)
(-0.0022971826 0 -0.0020189266)
(-0.0022338994 0 -0.0022430978)
(-0.0021597632 0 -0.0025278748)
(-0.0020749914 0 -0.0028806201)
(-0.0019804718 0 -0.0033048452)
(-0.0018777319 0 -0.0037982196)
(-0.0017688353 0 -0.0043509329)
(-0.0016561796 0 -0.0049455245)
(-0.0015422571 0 -0.0055582622)
(-0.0014294631 0 -0.0061618286)
(-0.0013199352 0 -0.0067287042)
(-0.0012153508 0 -0.0072349106)
(-0.001116862 0 -0.0076622043)
(-0.0010251197 0 -0.0079988792)
(-0.00094026517 0 -0.0082395648)
(-0.00086200295 0 -0.0083827942)
(-0.00078969228 0 -0.0084289516)
(-0.00072256596 0 -0.0083791096)
(-0.00065970841 0 -0.0082329637)
(-0.0005997605 0 -0.0079848908)
(-0.00054165345 0 -0.0076287308)
(-0.00048454284 0 -0.0071567871)
(-0.00042617225 0 -0.006547755)
(-0.00036429915 0 -0.0057768048)
(-0.00029570173 0 -0.0048042431)
(-0.00021602108 0 -0.003571481)
(-0.00011965938 0 -0.0019952931)
(0 0 0)
(-0.002529969 0 -0.0010001573)
(-0.0025296692 0 -0.0010020701)
(-0.0025296304 0 -0.0010022664)
(-0.0025295502 0 -0.0010025245)
(-0.0025294111 0 -0.0010028776)
(-0.0025291885 0 -0.001003363)
(-0.0025288479 0 -0.0010040326)
(-0.0025283424 0 -0.0010049595)
(-0.0025276081 0 -0.001006247)
(-0.0025265586 0 -0.0010080405)
(-0.0025250778 0 -0.0010105446)
(-0.0025230111 0 -0.0010140472)
(-0.0025201538 0 -0.0010189518)
(-0.0025162376 0 -0.0010258238)
(-0.002510914 0 -0.0010354517)
(-0.0025037365 0 -0.0010489327)
(-0.0024941405 0 -0.0010677841)
(-0.0024814258 0 -0.0010940892)
(-0.0024647437 0 -0.0011306761)
(-0.0024430963 0 -0.0011813262)
(-0.0024153548 0 -0.0012510011)
(-0.0023803083 0 -0.001346039)
(-0.0023367506 0 -0.0014742372)
(-0.0022836099 0 -0.0016446995)
(-0.0022201118 0 -0.0018673007)
(-0.0021459466 0 -0.0021516519)
(-0.0020614051 0 -0.0025054755)
(-0.0019674277 0 -0.0029326509)
(-0.0018655582 0 -0.003431203)
(-0.001757826 0 -0.0039916783)
(-0.0016465447 0 -0.0045969693)
(-0.0015340934 0 -0.0052236052)
(-0.001422748 0 -0.0058443241)
(-0.0013145443 0 -0.0064313901)
(-0.0012110991 0 -0.0069602667)
(-0.0011135426 0 -0.0074119119)
(-0.0010225296 0 -0.0077737206)
(-0.00093822978 0 -0.0080394124)
(-0.00086038574 0 -0.008206833)
(-0.00078839828 0 -0.0082759264)
(-0.00072152385 0 -0.008247446)
(-0.0006588612 0 -0.0081209361)
(-0.00059910219 0 -0.0078910835)
(-0.00054116817 0 -0.0075516923)
(-0.0004841588 0 -0.0070947147)
(-0.00042589154 0 -0.0064994262)
(-0.00036410109 0 -0.0057407191)
(-0.00029556835 0 -0.0047789123)
(-0.00021593359 0 -0.0035553648)
(-0.00011949504 0 -0.0019860226)
(0 0 0)
(-0.0025184423 0 -0.00066782746)
(-0.002518148 0 -0.00066959694)
(-0.0025181005 0 -0.00066955703)
(-0.0025180091 0 -0.00066953308)
(-0.002517856 0 -0.00066954894)
(-0.0025176155 0 -0.00066963178)
(-0.0025172523 0 -0.00066982222)
(-0.0025167184 0 -0.00067018017)
(-0.0025159482 0 -0.00067079385)
(-0.0025148534 0 -0.00067179134)
(-0.0025133157 0 -0.00067335811)
(-0.0025111773 0 -0.00067576076)
(-0.0025082298 0 -0.0006793806)
(-0.0025042007 0 -0.00068476013)
(-0.0024987363 0 -0.00069266663)
(-0.0024913843 0 -0.00070417911)
(-0.0024815742 0 -0.00072080396)
(-0.0024686001 0 -0.00074462489)
(-0.0024516097 0 -0.00077848943)
(-0.002429605 0 -0.00082622961)
(-0.0024014641 0 -0.00089289961)
(-0.0023659931 0 -0.00098498225)
(-0.0023220178 0 -0.0011104781)
(-0.0022685158 0 -0.0012787497)
(-0.0022047797 0 -0.001499972)
(-0.0021305783 0 -0.0017840737)
(-0.0020462792 0 -0.0021390944)
(-0.0019528784 0 -0.0025692263)
(-0.0018519357 0 -0.0030727895)
(-0.0017454442 0 -0.0036406381)
(-0.0016356305 0 -0.004255992)
(-0.0015247568 0 -0.0048956479)
(-0.0014149755 0 -0.0055324462)
(-0.001308216 0 -0.0061385115)
(-0.0012060289 0 -0.0066888477)
(-0.0011095172 0 -0.0071637028)
(-0.0010193368 0 -0.0075496387)
(-0.00093568295 0 -0.0078395093)
(-0.00085833574 0 -0.0080304762)
(-0.00078673735 0 -0.0081220226)
(-0.00072017023 0 -0.008114564)
(-0.0006577499 0 -0.0080074696)
(-0.00059821626 0 -0.0077956721)
(-0.00054048566 0 -0.0074729431)
(-0.00048360941 0 -0.0070309187)
(-0.00042546995 0 -0.0064493793)
(-0.00036378513 0 -0.005702993)
(-0.00029533954 0 -0.0047520996)
(-0.00021577399 0 -0.0035380458)
(-0.00011929983 0 -0.0019761571)
(0 0 0)
(-0.00250583 0 -0.00034269614)
(-0.0025055375 0 -0.00034432062)
(-0.002505479 0 -0.00034404233)
(-0.0025053739 0 -0.00034373484)
(-0.0025052035 0 -0.00034341373)
(-0.0025049416 0 -0.00034309639)
(-0.0025045516 0 -0.00034281208)
(-0.0025039842 0 -0.0003426076)
(-0.002503172 0 -0.00034255598)
(-0.0025020247 0 -0.00034276822)
(-0.0025004212 0 -0.00034341066)
(-0.0024982004 0 -0.00034472906)
(-0.0024951501 0 -0.00034708268)
(-0.0024909927 0 -0.00035099173)
(-0.0024853693 0 -0.00035720235)
(-0.0024778212 0 -0.0003667761)
(-0.0024677714 0 -0.00038120938)
(-0.0024545082 0 -0.0004025888)
(-0.0024371754 0 -0.00043378587)
(-0.0024147754 0 -0.00047868871)
(-0.0023861942 0 -0.00054245128)
(-0.0023502574 0 -0.00063170832)
(-0.0023058255 0 -0.00075466744)
(-0.00225193 0 -0.00092094683)
(-0.0021879353 0 -0.001141007)
(-0.0021136935 0 -0.0014250654)
(-0.0020296526 0 -0.0017814359)
(-0.0019368655 0 -0.002214568)
(-0.0018369071 0 -0.0027230185)
(-0.0017317319 0 -0.0032979004)
(-0.0016234762 0 -0.0039227337)
(-0.0015142817 0 -0.004574587)
(-0.0014061735 0 -0.0052264431)
(-0.0013009712 0 -0.0058503585)
(-0.0012001544 0 -0.0064209688)
(-0.0011047946 0 -0.0069179003)
(-0.0010155458 0 -0.0073269471)
(-0.00093262645 0 -0.0076401454)
(-0.00085585293 0 -0.0078539816)
(-0.00078470848 0 -0.007967463)
(-0.00071850356 0 -0.0079806505)
(-0.00065637263 0 -0.0078927166)
(-0.00059710122 0 -0.0076987813)
(-0.00053960474 0 -0.0073925834)
(-0.0004828932 0 -0.0069654742)
(-0.00042490643 0 -0.0063976729)
(-0.00036335051 0 -0.0056636692)
(-0.00029501475 0 -0.0047238347)
(-0.00021554227 0 -0.0035195457)
(-0.00011907319 0 -0.0019657007)
(0 0 0)
(-0.0024921595 0 -2.4613989e-05)
(-0.0024918691 0 -2.6094312e-05)
(-0.0024917977 0 -2.5578017e-05)
(-0.0024916764 0 -2.4987555e-05)
(-0.002491486 0 -2.4330482e-05)
(-0.0024911991 0 -2.3614555e-05)
(-0.0024907781 0 -2.2857869e-05)
(-0.002490172 0 -2.2094371e-05)
(-0.0024893118 0 -2.1382318e-05)
(-0.0024881045 0 -2.0815894e-05)
(-0.0024864261 0 -2.0542714e-05)
(-0.0024841122 0 -2.078816e-05)
(-0.002480946 0 -2.1889874e-05)
(-0.0024766448 0 -2.434619e-05)
(-0.0024708435 0 -2.8882743e-05)
(-0.0024630769 0 -3.6544551e-05)
(-0.0024527611 0 -4.8819375e-05)
(-0.0024391781 0 -6.7799173e-05)
(-0.0024214679 0 -9.6383709e-05)
(-0.0023986339 0 -0.0001385237)
(-0.0023695714 0 -0.000199482)
(-0.0023331277 0 -0.00028605395)
(-0.0022882015 0 -0.00040665825)
(-0.0022338823 0 -0.00057116512)
(-0.0021696114 0 -0.00079030521)
(-0.0020953286 0 -0.0010745546)
(-0.0020115656 0 -0.0014324584)
(-0.0019194323 0 -0.0018686681)
(-0.0018205176 0 -0.0023819192)
(-0.0017167339 0 -0.0029635368)
(-0.0016101237 0 -0.0035973143)
(-0.0015027048 0 -0.0042605938)
(-0.0013963724 0 -0.0049265361)
(-0.0012928334 0 -0.0055671939)
(-0.0011934926 0 -0.0061569211)
(-0.0010993862 0 -0.0066748063)
(-0.0010111634 0 -0.0071059427)
(-0.00092906375 0 -0.0074415984)
(-0.00085293855 0 -0.0076775992)
(-0.00078231163 0 -0.0078124657)
(-0.00071652302 0 -0.0078458902)
(-0.00065472813 0 -0.0077768287)
(-0.00059575588 0 -0.007600536)
(-0.00053852446 0 -0.0073107143)
(-0.00048200891 0 -0.0068984578)
(-0.00042420004 0 -0.0063443664)
(-0.00036279652 0 -0.0056227916)
(-0.00029459361 0 -0.0046941505)
(-0.00021523856 0 -0.0034998894)
(-0.00011881465 0 -0.0019546583)
(0 0 0)
(-0.0024774632 0 0.00028656468)
(-0.0024771746 0 0.00028522703)
(-0.0024770881 0 0.0002859794)
(-0.0024769483 0 0.00028685034)
(-0.002476735 0 0.00028784071)
(-0.0024764197 0 0.00028895254)
(-0.0024759635 0 0.00029017905)
(-0.0024753137 0 0.00029149902)
(-0.0024743991 0 0.00029286867)
(-0.0024731242 0 0.0002942101)
(-0.0024713619 0 0.00029539384)
(-0.0024689437 0 0.00029621423)
(-0.0024656482 0 0.00029635453)
(-0.0024611869 0 0.0002953376)
(-0.0024551884 0 0.00029245752)
(-0.0024471802 0 0.00028668481)
(-0.002436571 0 0.00027653887)
(-0.0024226366 0 0.00025991972)
(-0.002404513 0 0.00023389433)
(-0.0023812056 0 0.00019444158)
(-0.0023516208 0 0.00013617829)
(-0.0023146297 0 5.2139143e-05)
(-0.002269173 0 -6.6309005e-05)
(-0.0022144026 0 -0.00022928438)
(-0.0021498412 0 -0.00044777073)
(-0.0020755212 0 -0.00073247169)
(-0.0019920596 0 -0.0010921202)
(-0.001900624 0 -0.0015315139)
(-0.0018028143 0 -0.0020495112)
(-0.001700497 0 -0.0026376044)
(-0.0015956171 0 -0.003279834)
(-0.0014900657 0 -0.003953816)
(-0.0013856054 0 -0.0046329206)
(-0.0012838288 0 -0.0052892545)
(-0.0011860629 0 -0.0058969712)
(-0.0010933053 0 -0.0064347021)
(-0.0010061982 0 -0.0068869066)
(-0.00092499976 0 -0.0072441351)
(-0.00084959507 0 -0.0075015717)
(-0.00077954773 0 -0.0076572445)
(-0.00071422857 0 -0.0077104657)
(-0.00065281564 0 -0.0076599575)
(-0.00059417947 0 -0.0075010612)
(-0.0005372441 0 -0.0072274374)
(-0.00048095548 0 -0.0068299471)
(-0.00042334991 0 -0.0062895201)
(-0.00036212249 0 -0.0055804049)
(-0.00029407572 0 -0.0046630792)
(-0.00021486285 0 -0.0034790995)
(-0.00011852371 0 -0.0019430348)
(0 0 0)
(-0.0024617753 0 0.00059098433)
(-0.0024614873 0 0.00058978869)
(-0.0024613837 0 0.00059077727)
(-0.0024612229 0 0.00059192875)
(-0.0024609835 0 0.00059325236)
(-0.002460636 0 0.00059475962)
(-0.00246014 0 0.0005964548)
(-0.002459441 0 0.00059832928)
(-0.0024584654 0 0.00060035355)
(-0.0024571151 0 0.00060246579)
(-0.0024552592 0 0.00060455435)
(-0.0024527251 0 0.00060643314)
(-0.0024492863 0 0.00060780594)
(-0.0024446481 0 0.00060821627)
(-0.0024384322 0 0.00060697736)
(-0.0024301583 0 0.00060307435)
(-0.0024192275 0 0.00059503189)
(-0.0024049087 0 0.00058073858)
(-0.0023863349 0 0.00055722196)
(-0.0023625142 0 0.00052038098)
(-0.0023323661 0 0.00046469662)
(-0.0022947885 0 0.0003830241)
(-0.0022487668 0 0.00026651513)
(-0.0021935204 0 0.00010480789)
(-0.0021286582 0 -0.00011331535)
(-0.0020543092 0 -0.00039875333)
(-0.0019711777 0 -0.00076038244)
(-0.0018804873 0 -0.0012030917)
(-0.0017838462 0 -0.0017258076)
(-0.0016830702 0 -0.0023201482)
(-0.001580003 0 -0.002970376)
(-0.0014764059 0 -0.0036543803)
(-0.0013739079 0 -0.0043457677)
(-0.0012739856 0 -0.0050167527)
(-0.0011778867 0 -0.0056413626)
(-0.0010865672 0 -0.0061978487)
(-0.0010006604 0 -0.0066701027)
(-0.00092044095 0 -0.0070480089)
(-0.00084582614 0 -0.0073261326)
(-0.00077641859 0 -0.0075020073)
(-0.00071162083 0 -0.0075745565)
(-0.00065063498 0 -0.0075422528)
(-0.00059237156 0 -0.0074004812)
(-0.00053576317 0 -0.0071428543)
(-0.00047973206 0 -0.0067600204)
(-0.00042235531 0 -0.0062331951)
(-0.00036132781 0 -0.0055365546)
(-0.00029346062 0 -0.0046306533)
(-0.00021441518 0 -0.0034572009)
(-0.00011819992 0 -0.0019308364)
(0 0 0)
(-0.0024451295 0 0.00088878522)
(-0.0024448392 0 0.00088773086)
(-0.0024447163 0 0.0008889558)
(-0.0024445315 0 0.00089038828)
(-0.0024442627 0 0.0008920455)
(-0.0024438791 0 0.00089394819)
(-0.0024433385 0 0.00089611121)
(-0.0024425845 0 0.00089853837)
(-0.0024415412 0 0.00090121447)
(-0.0024401071 0 0.00090409359)
(-0.0024381477 0 0.0009070819)
(-0.0024354858 0 0.00091001271)
(-0.0024318891 0 0.00091261017)
(-0.0024270566 0 0.00091443823)
(-0.0024206022 0 0.00091482881)
(-0.0024120375 0 0.00091278085)
(-0.0024007554 0 0.00090682235)
(-0.0023860182 0 0.00089482608)
(-0.0023669561 0 0.0008737718)
(-0.0023425816 0 0.00083946832)
(-0.0023118302 0 0.00078623788)
(-0.0022736282 0 0.00070674804)
(-0.0022270094 0 0.00059194173)
(-0.0021712659 0 0.00043121668)
(-0.002106097 0 0.00021314293)
(-0.0020317323 0 -7.3339632e-05)
(-0.0019489644 0 -0.00043720664)
(-0.0018590711 0 -0.00088338342)
(-0.0017636643 0 -0.0014108133)
(-0.0016645044 0 -0.0020112)
(-0.0015633296 0 -0.0026690055)
(-0.0014617692 0 -0.0033623914)
(-0.0013613172 0 -0.0040652248)
(-0.0012633343 0 -0.0047498755)
(-0.0011689875 0 -0.0053903144)
(-0.0010791893 0 -0.0059644859)
(-0.00099456208 0 -0.0064557775)
(-0.00091539512 0 -0.0068534602)
(-0.00084163657 0 -0.007151506)
(-0.00077292701 0 -0.0073469556)
(-0.00070870117 0 -0.0074383382)
(-0.00064818652 0 -0.0074238629)
(-0.00059033214 0 -0.0072989202)
(-0.00053408151 0 -0.0070570668)
(-0.00047833798 0 -0.0066887568)
(-0.00042121561 0 -0.0061754532)
(-0.00036041194 0 -0.0054912869)
(-0.00029274794 0 -0.0045969063)
(-0.00021389551 0 -0.0034342172)
(-0.00011784285 0 -0.0019180697)
(0 0 0)
(-0.0024275522 0 0.0011801041)
(-0.0024272585 0 0.0011791902)
(-0.0024271141 0 0.001180651)
(-0.0024269028 0 0.0011823639)
(-0.0024266015 0 0.0011843538)
(-0.0024261778 0 0.0011866506)
(-0.0024255881 0 0.0011892799)
(-0.0024247735 0 0.0011922577)
(-0.0024236554 0 0.0011955831)
(-0.0024221292 0 0.0011992261)
(-0.0024200562 0 0.0012031107)
(-0.002417254 0 0.0012070895)
(-0.0024134845 0 0.0012109068)
(-0.0024084393 0 0.001214147)
(-0.0024017244 0 0.0012161605)
(-0.0023928424 0 0.0012159593)
(-0.0023811778 0 0.0012120727)
(-0.0023659866 0 0.0012023529)
(-0.0023463973 0 0.0011837188)
(-0.0023214282 0 0.0011518819)
(-0.0022900347 0 0.0011009675)
(-0.0022511731 0 0.0010234518)
(-0.0022039277 0 0.00091009156)
(-0.0021476695 0 0.00075003911)
(-0.002082193 0 0.00053167884)
(-0.0020078312 0 0.00024382401)
(-0.0019254659 0 -0.00012255666)
(-0.0018364259 0 -0.00057236982)
(-0.0017423217 0 -0.0011045257)
(-0.0016448526 0 -0.0017107795)
(-0.0015456473 0 -0.0023757709)
(-0.0014462012 0 -0.0030779337)
(-0.0013478728 0 -0.003791416)
(-0.0012519072 0 -0.0044887864)
(-0.0011593904 0 -0.0051440234)
(-0.0010711903 0 -0.0057348324)
(-0.00098791658 0 -0.0062441603)
(-0.00090987143 0 -0.0066607154)
(-0.00083703229 0 -0.0069779057)
(-0.00076907661 0 -0.0071922841)
(-0.00070547166 0 -0.0073019821)
(-0.00064547117 0 -0.0073049339)
(-0.00058806154 0 -0.0071965008)
(-0.00053219913 0 -0.0069701762)
(-0.00047677281 0 -0.0066162358)
(-0.00041993032 0 -0.0061163567)
(-0.00035937438 0 -0.0054446487)
(-0.00029193739 0 -0.0045618734)
(-0.00021330386 0 -0.0034101735)
(-0.00011745206 0 -0.0019047413)
(0 0 0)
(-0.0024090693 0 0.0014650748)
(-0.0024087741 0 0.0014642999)
(-0.002408606 0 0.0014659948)
(-0.0024083656 0 0.0014679856)
(-0.0024080286 0 0.0014703055)
(-0.0024075611 0 0.0014729939)
(-0.0024069175 0 0.0014760871)
(-0.0024060365 0 0.0014796138)
(-0.0024048367 0 0.001483587)
(-0.0024032098 0 0.0014879928)
(-0.0024010125 0 0.0014927726)
(-0.0023980571 0 0.001497798)
(-0.0023940988 0 0.0015028338)
(-0.0023888218 0 0.0015074849)
(-0.0023818229 0 0.0015111203)
(-0.0023725956 0 0.0015127659)
(-0.0023605157 0 0.0015109488)
(-0.0023448331 0 0.0015034964)
(-0.002324677 0 0.0014872414)
(-0.002299072 0 0.0014578076)
(-0.0022670004 0 0.0014090517)
(-0.0022274474 0 0.0013332644)
(-0.0021795481 0 0.0012210769)
(-0.0021227626 0 0.0010613628)
(-0.0020569826 0 0.00084235927)
(-0.0019826484 0 0.00055278734)
(-0.0019007305 0 0.00018360281)
(-0.0018126042 0 -0.00027002766)
(-0.0017198731 0 -0.00080693477)
(-0.0016241694 0 -0.0014188938)
(-0.0015270081 0 -0.002090704)
(-0.001429749 0 -0.0028010713)
(-0.0013336155 0 -0.0035244429)
(-0.0012397381 0 -0.0042336246)
(-0.0011491226 0 -0.0049026623)
(-0.0010625909 0 -0.0055090858)
(-0.00098073893 0 -0.0060354614)
(-0.00090388036 0 -0.0064699865)
(-0.00083202034 0 -0.0068055346)
(-0.00076487192 0 -0.0070381798)
(-0.00070193506 0 -0.0071656546)
(-0.00064249041 0 -0.0071856089)
(-0.00058556051 0 -0.0070933442)
(-0.00053011639 0 -0.0068822836)
(-0.00047503632 0 -0.0065425374)
(-0.00041849906 0 -0.0060559687)
(-0.00035821475 0 -0.005396688)
(-0.00029102862 0 -0.0045255892)
(-0.00021264019 0 -0.0033850947)
(-0.00011702724 0 -0.0018908603)
(0 0 0)
(-0.0023897182 0 0.0017438298)
(-0.0023894152 0 0.0017431926)
(-0.0023892211 0 0.0017451213)
(-0.0023889488 0 0.0017473896)
(-0.0023885728 0 0.0017500387)
(-0.0023880573 0 0.0017531176)
(-0.0023873547 0 0.0017566736)
(-0.0023864013 0 0.0017607477)
(-0.0023851124 0 0.0017653672)
(-0.0023833755 0 0.001770534)
(-0.0023810429 0 0.0017762074)
(-0.0023779208 0 0.0017822782)
(-0.0023737572 0 0.0017885317)
(-0.002368228 0 0.001794594)
(-0.0023609203 0 0.0017998554)
(-0.0023513175 0 0.0018033583)
(-0.0023387871 0 0.0018036196)
(-0.0023225733 0 0.001798448)
(-0.0023018112 0 0.0017845151)
(-0.0022755434 0 0.0017572501)
(-0.0022427616 0 0.0017104732)
(-0.0022024758 0 0.001636295)
(-0.0021538969 0 0.0015250013)
(-0.0020965769 0 0.0013652639)
(-0.0020305033 0 0.0011452414)
(-0.0019562274 0 0.00085359349)
(-0.0018748076 0 0.00048130334)
(-0.0017876601 0 2.366671e-05)
(-0.0016963747 0 -0.00051802486)
(-0.0016025107 0 -0.0011355404)
(-0.0015074652 0 -0.0018138227)
(-0.0014124611 0 -0.0025318512)
(-0.0013185873 0 -0.0032643873)
(-0.0012268622 0 -0.0039845085)
(-0.001138212 0 -0.0046663834)
(-0.0010534125 0 -0.0052874243)
(-0.00097304514 0 -0.0058298744)
(-0.00089743336 0 -0.0062814708)
(-0.00082660857 0 -0.0066345847)
(-0.00076031822 0 -0.0068848214)
(-0.00069809473 0 -0.0070295165)
(-0.00063924618 0 -0.0070660277)
(-0.00058283014 0 -0.0069895699)
(-0.00052783384 0 -0.0067934886)
(-0.00047312848 0 -0.0064677413)
(-0.0004169216 0 -0.0059943527)
(-0.0003569327 0 -0.0053474532)
(-0.00029002143 0 -0.0044880903)
(-0.00021190448 0 -0.0033590064)
(-0.00011656796 0 -0.0018764339)
(0 0 0)
(-0.0023695151 0 0.0020164962)
(-0.0023692084 0 0.0020159942)
(-0.0023689861 0 0.0020181544)
(-0.0023686793 0 0.0020206982)
(-0.0023682607 0 0.0020236759)
(-0.0023676931 0 0.0020271454)
(-0.0023669265 0 0.0020311649)
(-0.0023658943 0 0.0020357875)
(-0.0023645084 0 0.0020410543)
(-0.0023626523 0 0.0020469828)
(-0.0023601728 0 0.0020535495)
(-0.0023568699 0 0.0020606648)
(-0.0023524837 0 0.0020681351)
(-0.0023466808 0 0.0020756098)
(-0.0023390377 0 0.0020825048)
(-0.0023290253 0 0.0020879018)
(-0.0023160074 0 0.0020902505)
(-0.0022992362 0 0.0020872038)
(-0.002277853 0 0.00207534)
(-0.0022509047 0 0.0020499086)
(-0.0022173714 0 0.0020048969)
(-0.0021763084 0 0.0019322546)
(-0.0021270167 0 0.001821773)
(-0.0020691454 0 0.0016618078)
(-0.0020027941 0 0.0014403745)
(-0.0019286139 0 0.001146282)
(-0.001847749 0 0.00077057726)
(-0.0017616497 0 0.0003087422)
(-0.0016718848 0 -0.00023777102)
(-0.0015799341 0 -0.00086070321)
(-0.001487073 0 -0.0015451278)
(-0.0013943869 0 -0.0022702997)
(-0.0013028318 0 -0.003011308)
(-0.0012133159 0 -0.0037415325)
(-0.0011266882 0 -0.0044353149)
(-0.0010436783 0 -0.0050700039)
(-0.00096485257 0 -0.0056275735)
(-0.00089054306 0 -0.0060953501)
(-0.00082080595 0 -0.0064652354)
(-0.00075542162 0 -0.0067323787)
(-0.00069395474 0 -0.0068937226)
(-0.00063574097 0 -0.0069463265)
(-0.00057987194 0 -0.0068852951)
(-0.00052535236 0 -0.0067038905)
(-0.0004710495 0 -0.0063919276)
(-0.00041519784 0 -0.0059315725)
(-0.00035552803 0 -0.0052969936)
(-0.00028891554 0 -0.0044494126)
(-0.00021109675 0 -0.0033319351)
(-0.00011607388 0 -0.0018614715)
(0 0 0)
(-0.0023484959 0 0.0022832011)
(-0.0023481816 0 0.0022828393)
(-0.002347928 0 0.0022852371)
(-0.0023475831 0 0.0022880624)
(-0.002347118 0 0.0022913726)
(-0.0023464936 0 0.0022952348)
(-0.0023456574 0 0.0022997175)
(-0.00234454 0 0.0023048863)
(-0.0023430494 0 0.0023107964)
(-0.0023410645 0 0.0023174813)
(-0.0023384266 0 0.0023249356)
(-0.0023349284 0 0.0023330892)
(-0.0023303018 0 0.0023417698)
(-0.0023242031 0 0.0023506484)
(-0.0023161966 0 0.0023591618)
(-0.0023057457 0 0.0023664094)
(-0.0022922226 0 0.0023707251)
(-0.0022748896 0 0.002369511)
(-0.0022528705 0 0.0023593957)
(-0.0022251961 0 0.0023356897)
(-0.0021908659 0 0.0022922392)
(-0.0021489962 0 0.0022208125)
(-0.002098957 0 0.0021110692)
(-0.0020405116 0 0.0019508725)
(-0.0019738951 0 0.0017277979)
(-0.0018998548 0 0.001430886)
(-0.0018196081 0 0.001051453)
(-0.0017346305 0 0.00058522768)
(-0.0016464625 0 3.3855989e-05)
(-0.0015564981 0 -0.00059435816)
(-0.0014658869 0 -0.0012846084)
(-0.0013755767 0 -0.0020164287)
(-0.0012863927 0 -0.0027652473)
(-0.0011991361 0 -0.0035047726)
(-0.0011145812 0 -0.0042095667)
(-0.0010334121 0 -0.0048569625)
(-0.00095617933 0 -0.0054287166)
(-0.00088322289 0 -0.005911792)
(-0.00081462207 0 -0.006297655)
(-0.00075018887 0 -0.0065810129)
(-0.00068951962 0 -0.0067584213)
(-0.00063197769 0 -0.0068266371)
(-0.00057668772 0 -0.0067806342)
(-0.00052267303 0 -0.0066135865)
(-0.00046879975 0 -0.0063151758)
(-0.00041332781 0 -0.0058676923)
(-0.00035400054 0 -0.0052453591)
(-0.00028771084 0 -0.0044095946)
(-0.00021021698 0 -0.0033039075)
(-0.00011554472 0 -0.0018459833)
(0 0 0)
(-0.0023266877 0 0.002544067)
(-0.002326362 0 0.0025438414)
(-0.002326075 0 0.0025464733)
(-0.0023256891 0 0.0025495768)
(-0.0023251738 0 0.0025532171)
(-0.002324488 0 0.0025574705)
(-0.0023235766 0 0.0025624162)
(-0.0023223669 0 0.0025681315)
(-0.002320763 0 0.0025746856)
(-0.002318639 0 0.0025821277)
(-0.0023158298 0 0.0025904699)
(-0.0023121209 0 0.0025996613)
(-0.002307235 0 0.002609551)
(-0.0023008175 0 0.0026198321)
(-0.0022924212 0 0.0026299563)
(-0.0022815183 0 0.0026388845)
(-0.0022674888 0 0.0026448749)
(-0.0022495712 0 0.0026453686)
(-0.0022268675 0 0.0026369618)
(-0.0021984115 0 0.0026149471)
(-0.0021632449 0 0.0025728933)
(-0.0021205408 0 0.0025023486)
(-0.0020697436 0 0.0023929153)
(-0.0020107137 0 0.0022323385)
(-0.0019438417 0 0.0020075491)
(-0.0018699991 0 0.0017074348)
(-0.0017904401 0 0.001323959)
(-0.0017066617 0 0.00085315702)
(-0.0016201684 0 0.00029689461)
(-0.0015322621 0 -0.00033646822)
(-0.0014439628 0 -0.0010322376)
(-0.0013560814 0 -0.0017702319)
(-0.0012693146 0 -0.002526227)
(-0.0011843606 0 -0.0032742832)
(-0.0011019222 0 -0.0039892269)
(-0.0010226384 0 -0.004648418)
(-0.00094704451 0 -0.0052334429)
(-0.0008754871 0 -0.0057309487)
(-0.00080806737 0 -0.0061319994)
(-0.00074462737 0 -0.0064308758)
(-0.00068479454 0 -0.0066237543)
(-0.00062795974 0 -0.0067070872)
(-0.00057327966 0 -0.0066756995)
(-0.0005197972 0 -0.006522673)
(-0.00046637981 0 -0.0062375652)
(-0.00041131166 0 -0.0058027764)
(-0.00035235021 0 -0.0051926004)
(-0.00028640717 0 -0.0043686738)
(-0.00020926517 0 -0.0032749509)
(-0.00011498014 0 -0.0018299788)
(0 0 0)
(-0.0023041062 0 0.0027992139)
(-0.0023037719 0 0.0027991237)
(-0.0023034488 0 0.0028019892)
(-0.0023030188 0 0.0028053701)
(-0.0023024497 0 0.0028093394)
(-0.002301698 0 0.0028139828)
(-0.0023007058 0 0.0028193897)
(-0.002299397 0 0.00282565)
(-0.0022976715 0 0.0028328464)
(-0.0022953979 0 0.0028410438)
(-0.0022924047 0 0.0028502719)
(-0.0022884691 0 0.0028604999)
(-0.0022833039 0 0.0028715997)
(-0.0022765421 0 0.0028832954)
(-0.0022677379 0 0.0028949885)
(-0.0022563781 0 0.0029054487)
(-0.0022418217 0 0.0029129559)
(-0.0022232723 0 0.0029151213)
(-0.0021998325 0 0.0029084251)
(-0.0021705521 0 0.0028879804)
(-0.0021345091 0 0.0028471626)
(-0.0020909403 0 0.002777282)
(-0.0020393812 0 0.0026676933)
(-0.0019797842 0 0.0025062497)
(-0.0019126882 0 0.0022795134)
(-0.0018390983 0 0.0019759561)
(-0.0017603026 0 0.0015881238)
(-0.0016778043 0 0.0011125688)
(-0.0015930646 0 0.00055139217)
(-0.0015072864 0 -8.6984649e-05)
(-0.0014213573 0 -0.0007879741)
(-0.0013359522 0 -0.0015316859)
(-0.0012516424 0 -0.0022942505)
(-0.0011690275 0 -0.0030500991)
(-0.0010887427 0 -0.0037743638)
(-0.0010113827 0 -0.0044444684)
(-0.00093746777 0 -0.0050418746)
(-0.00086735067 0 -0.0055529571)
(-0.00080115294 0 -0.0059684117)
(-0.00073874515 0 -0.006282109)
(-0.00067978516 0 -0.0064898562)
(-0.00062369095 0 -0.0065877994)
(-0.00056965026 0 -0.0065705996)
(-0.00051672649 0 -0.0064312443)
(-0.0004637905 0 -0.0061591746)
(-0.00040914973 0 -0.0057368896)
(-0.00035057705 0 -0.0051387688)
(-0.00028500446 0 -0.0043266896)
(-0.00020824132 0 -0.0032450932)
(-0.00011437991 0 -0.0018134701)
(0 0 0)
(-0.0022807826 0 0.0030487596)
(-0.0022804347 0 0.003048804)
(-0.002280073 0 0.0030519028)
(-0.0022795957 0 0.0030555605)
(-0.0022789689 0 0.0030598583)
(-0.0022781464 0 0.0030648906)
(-0.0022770677 0 0.0030707575)
(-0.0022756529 0 0.0030775607)
(-0.0022737972 0 0.0030853968)
(-0.0022713635 0 0.0030943457)
(-0.0022681733 0 0.003104454)
(-0.0022639951 0 0.0031157092)
(-0.0022585307 0 0.0031280023)
(-0.0022514057 0 0.0031410757)
(-0.0022421871 0 0.0031542086)
(-0.0022303527 0 0.0031661372)
(-0.0022152263 0 0.00317521)
(-0.0021960003 0 0.0031790014)
(-0.0021717805 0 0.0031739124)
(-0.0021416322 0 0.0031549086)
(-0.0021046736 0 0.0031151635)
(-0.0020602148 0 0.0030457068)
(-0.0020078881 0 0.0029356196)
(-0.0019477683 0 0.0027726436)
(-0.0018804931 0 0.0025435658)
(-0.0018072009 0 0.0022364703)
(-0.001729255 0 0.0018439755)
(-0.0016481204 0 0.0013635059)
(-0.0015652134 0 0.00079740362)
(-0.0014816317 0 0.00015415164)
(-0.0013981269 0 -0.00055176391)
(-0.00131524 0 -0.0013007528)
(-0.0012334209 0 -0.0020693047)
(-0.0011531751 0 -0.002832237)
(-0.0010750744 0 -0.0035650275)
(-0.00099967046 0 -0.0042451947)
(-0.00092746932 0 -0.004854117)
(-0.0008588291 0 -0.0053779391)
(-0.00079389037 0 -0.0058070229)
(-0.00073255072 0 -0.0061348448)
(-0.00067449756 0 -0.0063568543)
(-0.00061917551 0 -0.0064688915)
(-0.00056580235 0 -0.00646544)
(-0.00051346271 0 -0.0063393928)
(-0.00046103277 0 -0.0060800819)
(-0.00040684246 0 -0.0056700964)
(-0.00034868119 0 -0.0050839161)
(-0.00028350274 0 -0.0042836823)
(-0.00020714548 0 -0.0032143628)
(-0.00011374368 0 -0.001796467)
(0 0 0)
(-0.0022567331 0 0.0032928184)
(-0.0022563733 0 0.0032929969)
(-0.0022559702 0 0.0032963288)
(-0.0022554425 0 0.0033002631)
(-0.0022547539 0 0.0033048887)
(-0.002253856 0 0.003310309)
(-0.002252685 0 0.0033166346)
(-0.0022511569 0 0.0033239789)
(-0.0022491621 0 0.0033324521)
(-0.0022465576 0 0.0033421489)
(-0.002243157 0 0.0033531327)
(-0.0022387198 0 0.003365409)