/*--------------------------------*- C++ -*----------------------------------*\
  =========                 |
  \\      /  F ield         | OpenFOAM: The Open Source CFD Toolbox
   \\    /   O peration     | Website:  https://openfoam.org
    \\  /    A nd           | Version:  8
     \\/     M anipulation  |
\*---------------------------------------------------------------------------*/
FoamFile
{
    version     2.0;
    format      ascii;
    class       volScalarField;
    location    "0.0300106";
    object      rho;
}
// * * * * * * * * * * * * * * * * * * * * * * * * * * * * * * * * * * * * * //

dimensions      [1 -3 0 0 0 0 0];

internalField   nonuniform List<scalar> 
20000
(
0.96002458
0.96076279
0.962547
0.96643983
0.97448337
0.9906953
1.0072785
1.0104229
1.0095307
1.0107123
1.010646
1.011906
1.0125123
1.0141283
1.015442
1.0176531
1.0198683
1.0229907
1.026527
1.0310673
1.0362511
1.0424579
1.0494648
1.057533
1.0664656
1.0763187
1.0868582
1.0977619
1.1086235
1.1190733
1.128748
1.1373625
1.1447619
1.1508847
1.1557043
1.1593589
1.1619201
1.163224
1.1635482
1.1624142
1.1601981
1.1594143
1.1631641
1.1663785
1.1676032
1.1677772
1.1671464
1.1667564
1.1665517
1.1664511
0.9581025
0.95888848
0.96071363
0.96475252
0.97310971
0.99028583
1.0057968
1.0086938
1.0078689
1.009128
1.0090996
1.0104148
1.011062
1.01274
1.0141166
1.0164411
1.0188214
1.0221705
1.0258737
1.0305655
1.0359038
1.0422714
1.0494219
1.0575977
1.0668027
1.0769115
1.0876529
1.0987156
1.1096648
1.1201202
1.1297287
1.1382236
1.1454774
1.15144
1.1560852
1.1597015
1.162055
1.163164
1.1634313
1.1618432
1.1600849
1.1594239
1.1635369
1.1665451
1.1676192
1.167794
1.1671389
1.1667542
1.1665519
1.1664509
0.95717096
0.9579787
0.95992659
0.96418296
0.97294359
0.99117187
1.0051526
1.0076341
1.0067567
1.0080298
1.0080074
1.009368
1.0100912
1.0118809
1.0133859
1.0158654
1.0183784
1.0218417
1.0256588
1.0304629
1.0358756
1.0422867
1.0496076
1.0580615
1.06749
1.0778262
1.0887694
1.0999652
1.1109706
1.1213976
1.1309039
1.1392438
1.1463176
1.1520814
1.1565406
1.1600687
1.1621989
1.1630874
1.163131
1.1610485
1.1597413
1.1596083
1.1641834
1.1667116
1.1676192
1.1677776
1.1671393
1.1667569
1.1665541
1.1664518
0.95619438
0.95706064
0.95912574
0.96360458
0.97280084
0.99204553
1.0045731
1.0068278
1.0059743
1.0073463
1.007409
1.0089204
1.0096665
1.0115261
1.0130899
1.0156378
1.0182226
1.0217604
1.0256123
1.0304517
1.0359877
1.0426325
1.0502055
1.0588995
1.0685838
1.0791463
1.0902634
1.1015603
1.1125802
1.1229332
1.1322923
1.1404372
1.1472937
1.152823
1.1571083
1.1604514
1.1623414
1.1630427
1.1627956
1.160496
1.1593993
1.1599973
1.1644887
1.1668758
1.1676642
1.1677778
1.1671375
1.1667572
1.1665545
1.1664521
0.95607046
0.95689151
0.95901285
0.96370718
0.97334031
0.99350495
1.0044637
1.0065212
1.0057346
1.0071122
1.0072239
1.0087227
1.0094973
1.0114188
1.0130153
1.0155944
1.0182069
1.0217964
1.0257955
1.0308222
1.0365555
1.043394
1.0512053
1.0601535
1.0700734
1.0808418
1.0921091
1.1034718
1.1144644
1.1246996
1.1338688
1.14178
1.1483808
1.1536446
1.1577506
1.1608348
1.1624726
1.1630161
1.1624251
1.160037
1.1590176
1.1605633
1.1648563
1.1670391
1.1677339
1.1677757
1.1671375
1.166758
1.1665552
1.1664525
0.9558074
0.95678262
0.95902038
0.96399362
0.97413313
0.99510273
1.0044924
1.0064744
1.0056152
1.0070679
1.0071093
1.008681
1.0094635
1.0114213
1.0130732
1.0157542
1.0184917
1.0222308
1.0263685
1.0315513
1.0374814
1.044547
1.0526017
1.0617932
1.0719473
1.0829072
1.0942979
1.1056914
1.1166149
1.1266887
1.1356261
1.1432647
1.149572
1.1545503
1.1584613
1.1612189
1.1625915
1.1629839
1.1620759
1.1596945
1.1587099
1.1611527
1.1651823
1.1672098
1.1678394
1.1677744
1.167137
1.1667584
1.1665555
1.1664528
0.95615375
0.95699522
0.95928001
0.96449107
0.97519832
0.99673558
1.0046124
1.0064849
1.0056511
1.0071337
1.007215
1.0087984
1.0097115
1.0117648
1.0135023
1.0162811
1.0191262
1.0229942
1.0272976
1.0326662
1.0388045
1.0460912
1.0543894
1.063823
1.074199
1.085331
1.0968162
1.1082023
1.1190136
1.1288821
1.1375456
1.1448714
1.1508509
1.15554
1.1592139
1.1615972
1.1626924
1.1629557
1.1616551
1.1594172
1.1585515
1.1617365
1.1655103
1.1673897
1.1679675
1.167773
1.1671367
1.1667588
1.1665558
1.1664531
0.95637269
0.95730302
0.95973443
0.96522573
0.97664351
0.9985268
1.0050105
1.0068987
1.0060903
1.0076403
1.0077135
1.0093643
1.0102941
1.0124184
1.0142378
1.0171255
1.0200969
1.0241094
1.0285746
1.0341242
1.0404757
1.0479931
1.056537
1.0662098
1.0768007
1.0880874
1.0996389
1.110981
1.1216389
1.1312604
1.1396088
1.1465824
1.152209
1.1566214
1.1599827
1.1619727
1.1627851
1.1629215
1.1611761
1.1592059
1.158502
1.1622646
1.1658183
1.1675737
1.1681071
1.1677717
1.167136
1.166759
1.166556
1.1664534
0.95720255
0.95804344
0.96055241
0.96632317
0.97851767
1.000538
1.0056459
1.0074726
1.0067342
1.0082922
1.0084412
1.0101807
1.0111621
1.0133764
1.0152859
1.0182826
1.0213776
1.025533
1.0301731
1.0359165
1.0424894
1.0502421
1.0590354
1.0689458
1.0797411
1.0911623
1.1027492
1.1140085
1.1244711
1.1338029
1.1417934
1.1483781
1.1536403
1.1577786
1.1607415
1.1623456
1.1628959
1.162821
1.1607232
1.1590342
1.1585047
1.1627585
1.1661153
1.1677569
1.168248
1.1677707
1.1671347
1.1667583
1.1665562
1.1664536
0.95798743
0.95890867
0.96152205
0.96761455
0.98072715
1.0026676
1.0064801
1.0083937
1.0076462
1.0092765
1.0094639
1.0112641
1.0123096
1.0146076
1.016607
1.0197153
1.0229422
1.0272492
1.0320676
1.0380098
1.0448123
1.0528081
1.0618547
1.0720017
1.0829925
1.0945284
1.10612
1.1172591
1.1274858
1.1364858
1.1440768
1.1502443
1.155147
1.1589703
1.1614822
1.1627125
1.1630732
1.1626506
1.1602858
1.1588819
1.1585278
1.1632363
1.1664044
1.1679367
1.1683902
1.16777
1.1671323
1.166757
1.1665562
1.1664538
0.95928114
0.9601698
0.96285806
0.96923332
0.98336044
1.0049571
1.0075836
1.0095389
1.0087989
1.0104758
1.0107212
1.0125913
1.0136958
1.0160811
1.0181749
1.0213992
1.0247633
1.0292279
1.0342379
1.0403906
1.0474327
1.0556791
1.0649834
1.0753651
1.0865398
1.0981677
1.109731
1.1207106
1.1306594
1.1392833
1.1464356
1.1521722
1.1567287
1.1601559
1.1621939
1.1630853
1.1633062
1.1624099
1.1599073
1.1587284
1.1588071
1.1637207
1.1666974
1.1681061
1.1685283
1.1677685
1.1671286
1.1667547
1.1665554
1.166454
0.96063058
0.96154141
0.96433757
0.97100381
0.98627939
1.0072769
1.0088758
1.0108876
1.010155
1.0119082
1.0121849
1.0141227
1.0152921
1.0177677
1.0199624
1.0233097
1.0268221
1.0314552
1.0366651
1.0430375
1.0503291
1.0588342
1.0684004
1.0790145
1.0903611
1.102057
1.1135581
1.1243387
1.1339669
1.1421704
1.148853
1.1541627
1.1583695
1.1613052
1.162873
1.1634595
1.1635454
1.1620984
1.1596033
1.1585107
1.1593628
1.1642297
1.1670117
1.168262
1.1686474
1.1677643
1.1671231
1.1667513
1.1665542
1.1664542
0.96223275
0.963155
0.96606192
0.97302097
0.98951839
1.0096698
1.0103446
1.0124092
1.0116981
1.0135031
1.0138242
1.0158355
1.0170758
1.019649
1.021954
1.0254333
1.0291037
1.0339139
1.0393358
1.0459389
1.05349
1.0622616
1.0720933
1.0829357
1.0944391
1.1061762
1.1175787
1.1281188
1.1373803
1.1451208
1.1513173
1.1562173
1.1600127
1.1624068
1.1635169
1.1638352
1.1637006
1.1617499
1.1593495
1.1583508
1.1600563
1.1647868
1.1673705
1.1684176
1.1687206
1.1677576
1.1671159
1.166747
1.1665527
1.1664543
0.9638313
0.96483189
0.96789058
0.97516406
0.99292615
1.012024
1.0119356
1.0140691
1.0133839
1.0152573
1.0156267
1.0177184
1.0190377
1.021716
1.0241402
1.0277594
1.0315976
1.0365951
1.0422394
1.0490836
1.0569044
1.0659507
1.0760506
1.087116
1.0987585
1.1105072
1.1217725
1.1320273
1.1408743
1.1481161
1.1538273
1.1583294
1.1616124
1.1634484
1.1641399
1.1642163
1.1637522
1.1614296
1.1591438
1.1582776
1.1607757
1.1653575
1.1677627
1.1686054
1.16875
1.1677484
1.1671068
1.1667417
1.1665508
1.1664544
0.96567738
0.9667367
0.96995671
0.97753417
0.99655763
1.0143933
1.013693
1.0158876
1.0152318
1.0171701
1.0175931
1.0197698
1.0211746
1.0239638
1.0265148
1.0302808
1.0342957
1.0394887
1.0453661
1.0524617
1.0605619
1.0698898
1.0802596
1.0915397
1.1033007
1.1150279
1.126114
1.1360348
1.1444201
1.1511416
1.1563826
1.1604475
1.163137
1.1644271
1.1647747
1.1645906
1.1637623
1.1611436
1.159009
1.1582562
1.1615136
1.1658973
1.1681514
1.1688652
1.1687593
1.1677371
1.1670958
1.1667356
1.1665487
1.1664545
0.96766937
0.96879662
0.9722143
0.98012817
1.0003518
1.0167574
1.0155937
1.0178499
1.0172293
1.0192386
1.0197216
1.0219879
1.0234836
1.0263876
1.0290721
1.0329903
1.0371917
1.0425906
1.0487125
1.0560707
1.0644606
1.0740773
1.084717
1.096201
1.1080557
1.119724
1.1305836
1.1401177
1.1479994
1.1541953
1.1589795
1.1625137
1.1645748
1.1653727
1.165414
1.1649699
1.1637622
1.1609079
1.1589558
1.158269
1.162225
1.1663976
1.1685152
1.1691728
1.1687593
1.1677223
1.1670828
1.1667288
1.1665463
1.1664542
0.96978524
0.97099613
0.97465045
0.98296511
1.0042582
1.0191256
1.0176449
1.0199673
1.0193864
1.0214689
1.0220131
1.0243701
1.0259595
1.0289821
1.0318058
1.0358848
1.0402811
1.0458945
1.0522712
1.0599023
1.0685912
1.0785021
1.0894095
1.1010833
1.1130033
1.124571
1.1351519
1.1442463
1.1515957
1.1572754
1.1615787
1.1644805
1.1659217
1.1663179
1.1660268
1.1653433
1.1636872
1.160712
1.1589404
1.1583334
1.1629391
1.1668696
1.1688477
1.1694631
1.1687559
1.1677017
1.1670679
1.1667214
1.1665436
1.1664539
0.9720681
0.97336895
0.97730141
0.98610975
1.0082653
1.0215528
1.0198635
1.0222443
1.0216994
1.0238519
1.0244575
1.0269066
1.0285948
1.0317405
1.034713
1.0389579
1.0435612
1.0494008
1.056045
1.0639613
1.0729594
1.0831698
1.09434
1.1061849
1.1181358
1.1295543
1.1397982
1.1484032
1.1552082
1.1603792
1.164114
1.1663381
1.1672221
1.1672407
1.1666009
1.1656688
1.1634842
1.1605419
1.1589395
1.1585458
1.1636707
1.1673226
1.1691373
1.1697149
1.1687251
1.1676754
1.1670517
1.1667136
1.1665407
1.1664534
0.97444978
0.9758469
0.98009525
0.98952802
1.0122833
1.0241055
1.0222115
1.0246506
1.0241443
1.0263713
1.0270438
1.0295911
1.031385
1.0346611
1.0377895
1.042212
1.0470308
1.0531057
1.0600282
1.0682407
1.0775568
1.0880694
1.0994945
1.1114878
1.1234302
1.1346442
1.1444913
1.1525698
1.158834
1.1634697
1.1665308
1.1680787
1.1685136
1.1681117
1.1671268
1.1658404
1.1632018
1.1603886
1.1590568
1.1589723
1.1644223
1.1677743
1.1693828
1.1699008
1.1686835
1.1676458
1.1670345
1.1667055
1.1665377
1.166453
0.97693807
0.97843209
0.98302797
0.99324691
1.0162749
1.0266922
1.0246777
1.0271811
1.0267206
1.0290276
1.0297735
1.0324237
1.0343307
1.0377421
1.0410378
1.045642
1.0506897
1.0570135
1.064229
1.0727511
1.0823944
1.0932106
1.1048785
1.1169911
1.1288768
1.1398234
1.1492149
1.1567462
1.1624705
1.1664794
1.1688178
1.1697567
1.1697636
1.1689298
1.167609
1.1659042
1.1628909
1.1602774
1.159178
1.1597037
1.1651756
1.1682511
1.169598
1.1700005
1.1686365
1.1676142
1.1670168
1.1666973
1.1665346
1.1664525
0.97957339
0.98115748
0.98611105
0.99730204
1.0202354
1.0292352
1.0272774
1.0298475
1.0294349
1.0318243
1.0326468
1.0354041
1.0374306
1.0409845
1.0444543
1.049254
1.0545397
1.0611232
1.0686439
1.0774869
1.0874642
1.0985819
1.1104765
1.1226736
1.1344472
1.1450603
1.1539484
1.1609296
1.166074
1.1693551
1.1709659
1.171409
1.1709401
1.169693
1.1680616
1.1659136
1.1625964
1.1602208
1.1592702
1.1607076
1.1659542
1.1687511
1.1698236
1.1700462
1.1685867
1.1675812
1.1669985
1.1666889
1.1665316
1.166452
0.98232476
0.98399797
0.98932258
1.0016921
1.0241423
1.0319316
1.0300115
1.0326476
1.0322838
1.0347581
1.0356622
1.0385315
1.0406852
1.0443873
1.0480433
1.0530437
1.0585843
1.0654441
1.0732861
1.0824628
1.0927801
1.1041942
1.1162932
1.1285307
1.1401272
1.1503387
1.1586911
1.1651177
1.1695795
1.1720804
1.1730349
1.1729981
1.172039
1.1704024
1.1684981
1.1659025
1.1623403
1.1601991
1.1593714
1.1617624
1.1667128
1.1692478
1.1700933
1.1700572
1.1685357
1.167547
1.1669798
1.1666804
1.1665285
1.1664515
0.9851954
0.98695706
0.99265971
1.0064124
1.0280014
1.0348202
1.0328643
1.0355697
1.035262
1.0378266
1.0388193
1.0418051
1.0440945
1.0479512
1.0518038
1.0570213
1.0628289
1.069978
1.0781538
1.0876741
1.0983343
1.1100356
1.1223105
1.1345361
1.1458845
1.1556341
1.1634382
1.1692595
1.172935
1.1746483
1.1750574
1.1744928
1.1730542
1.1710547
1.1689031
1.1657807
1.162146
1.1601955
1.1595047
1.1628382
1.1674165
1.1697218
1.170464
1.1700545
1.1684846
1.1675114
1.1669608
1.1666721
1.1665255
1.166451
0.98813256
0.98999078
0.99608152
1.0114063
1.0318003
1.0377728
1.0358405
1.038624
1.038375
1.0410348
1.0421185
1.0452267
1.0476587
1.0516805
1.0557437
1.0611888
1.0672819
1.0747378
1.0832627
1.093137
1.1041409
1.1161152
1.1285283
1.1406783
1.1517026
1.1609423
1.1681891
1.1732922
1.1761186
1.1771194
1.1769941
1.175892
1.1739893
1.1716503
1.1692103
1.1656105
1.1620208
1.1602057
1.1596969
1.163848
1.1680618
1.1701726
1.1708394
1.1700046
1.1684268
1.1674738
1.1669417
1.1666638
1.1665226
1.1664506
0.99118452
0.99317842
0.99967272
1.0167183
1.0355649
1.0408763
1.0389592
1.0418142
1.0416229
1.0443776
1.0455597
1.048796
1.0513849
1.0555815
1.0598707
1.06556
1.0719509
1.0797262
1.0886117
1.098847
1.1101915
1.1224183
1.1349231
1.1469252
1.1575537
1.1662555
1.1728943
1.1771609
1.1791237
1.1795216
1.1788164
1.177186
1.174845
1.1721957
1.1693263
1.1653908
1.1619756
1.1603171
1.1599931
1.164814
1.168651
1.1705543
1.1711514
1.1699063
1.1683605
1.1674351
1.1669228
1.1666558
1.1665198
1.1664502
0.99448365
0.99655451
1.0034638
1.0222929
1.0392707
1.0440737
1.0421895
1.0451196
1.0449964
1.0478564
1.049149
1.0525244
1.055282
1.0596656
1.0641938
1.0701381
1.0768457
1.0849577
1.094217
1.1048201
1.1164984
1.1289486
1.1414859
1.1532598
1.1634284
1.1715758
1.1774903
1.1808379
1.1820093
1.1818177
1.1805234
1.1783747
1.1756241
1.1727042
1.1693638
1.1651453
1.1619716
1.1605325
1.1604488
1.1657322
1.1691894
1.1708522
1.1713651
1.1697929
1.1682907
1.1673966
1.1669043
1.166648
1.1665171
1.1664499
0.99759882
0.99986568
1.0073
1.0279636
1.042894
1.0473694
1.0455388
1.048561
1.0485153
1.0514892
1.052901
1.0564212
1.05936
1.0639387
1.0687212
1.0749372
1.0819736
1.0904349
1.100078
1.1110517
1.1230513
1.1356867
1.148187
1.1596514
1.1693114
1.1768664
1.1819131
1.1843072
1.184807
1.1839777
1.1821054
1.1794546
1.1763246
1.1731671
1.1693582
1.1649114
1.1620015
1.1607976
1.1611715
1.1665936
1.1696878
1.1710807
1.1714678
1.1696759
1.1682204
1.1673587
1.1668863
1.1666405
1.1665145
1.1664496
1.0010984
1.0034916
1.0114721
1.0338665
1.0465634
1.0508394
1.049056
1.052164
1.0521959
1.0552846
1.0568224
1.0604944
1.0636253
1.0684109
1.0734607
1.0799604
1.0873451
1.0961728
1.1062108
1.1175559
1.129857
1.1426272
1.1550098
1.1660867
1.175204
1.18206
1.1861312
1.1876255
1.18748
1.186002
1.1835622
1.1804313
1.1769508
1.1735202
1.169241
1.1647268
1.1621157
1.1610943
1.1621856
1.1674201
1.1701711
1.1712823
1.1715013
1.1695597
1.1681511
1.1673216
1.1668688
1.1666333
1.166512
1.1664493
1.0045943
1.0071678
1.0158304
1.0398099
1.0502243
1.0544432
1.0527144
1.0559172
1.0560328
1.0592437
1.0609178
1.0647486
1.0680855
1.0730872
1.0784205
1.0852222
1.0929683
1.1021751
1.1126153
1.1243272
1.1369011
1.1497431
1.1619221
1.1725445
1.181088
1.1870783
1.1901108
1.1908357
1.1899967
1.1878806
1.1848886
1.1813081
1.1775164
1.1736574
1.1690065
1.16459
1.162278
1.161468
1.1634018
1.1682397
1.1706747
1.1715221
1.1715012
1.1694472
1.1680831
1.1672855
1.1668518
1.1666263
1.1665096
1.1664491
1.0085052
1.0111563
1.0205906
1.0458006
1.0539858
1.0582101
1.0565319
1.0598278
1.0600337
1.0633725
1.0651935
1.0691907
1.0727459
1.0779765
1.0836092
1.0907279
1.0988559
1.1084577
1.1193065
1.1313751
1.1441813
1.1570185
1.1689057
1.179019
1.186899
1.1918847
1.1939019
1.1939057
1.1923549
1.1896142
1.1860866
1.1820903
1.1780404
1.1737042
1.1686983
1.1644914
1.1624574
1.1618568
1.1646121
1.1690312
1.1711825
1.1718819
1.1714879
1.1693396
1.1680162
1.16725
1.1668354
1.1666196
1.1665074
1.166449
1.012201
1.0150437
1.025485
1.051672
1.0578639
1.0620954
1.0604901
1.0638966
1.064202
1.0676762
1.0696537
1.0738245
1.0776116
1.0830856
1.0890359
1.0964934
1.1050171
1.1150253
1.1262841
1.138691
1.1516757
1.1644215
1.175934
1.1854957
1.1925583
1.1964337
1.1975461
1.1968037
1.1945456
1.1911979
1.1871563
1.1827775
1.1784945
1.173702
1.1683561
1.1644597
1.1626619
1.1622702
1.1658311
1.1697724
1.1716701
1.1722551
1.1713586
1.1692321
1.167949
1.1672154
1.1668197
1.1666132
1.1665052
1.1664489
1.0162506
1.0191983
1.0308064
1.0576257
1.0618918
1.0661732
1.0646298
1.0681383
1.068546
1.0721549
1.0743017
1.0786538
1.0826918
1.0884242
1.0947135
1.102526
1.1114662
1.1218933
1.1335599
1.1462758
1.1593707
1.1719314
1.1829935
1.1919391
1.1980034
1.2007433
1.2010422
1.1995166
1.1965701
1.1926347
1.1881067
1.1833764
1.1787525
1.1736049
1.1680175
1.1644576
1.1629119
1.1627102
1.166947
1.1704341
1.1720874
1.172576
1.1711696
1.1691153
1.1678821
1.1671819
1.1668046
1.1666072
1.1665033
1.1664489
1.0205178
1.023547
1.0364404
1.0635154
1.0660323
1.070386
1.0689109
1.0725342
1.0730562
1.0768106
1.079142
1.0836897
1.0879973
1.0940081
1.1006561
1.1088472
1.1182146
1.1290668
1.1411304
1.1541134
1.1672363
1.179519
1.1900675
1.1982658
1.2031853
1.2048563
1.2043519
1.2020388
1.1984237
1.1939226
1.1889437
1.1839061
1.1788494
1.1733551
1.1677282
1.1644686
1.1631847
1.1632538
1.1679397
1.1709955
1.1724037
1.1727962
1.1709632
1.1689964
1.1678169
1.1671499
1.1667904
1.1666014
1.1665014
1.166449
1.0249691
1.0280706
1.0424136
1.0693469
1.0703075
1.0747632
1.0733543
1.0771024
1.0777476
1.0816567
1.0841901
1.0889479
1.0935469
1.0998549
1.1068824
1.1154652
1.1252763
1.1365585
1.1490004
1.1621928
1.1752492
1.1871638
1.1971421
1.2043944
1.2080791
1.2088124
1.2074474
1.2043702
1.2001096
1.1950665
1.189674
1.1843796
1.178869
1.1729783
1.1674968
1.1645501
1.1634505
1.1640177
1.1687914
1.1714614
1.1726219
1.1728939
1.1707586
1.1688801
1.1677545
1.1671195
1.1667769
1.166596
1.1664997
1.1664491
1.0296024
1.032721
1.0486828
1.0750769
1.0747205
1.079307
1.0779693
1.0818486
1.0826322
1.0867083
1.0894648
1.0944477
1.099358
1.1059808
1.1134044
1.1223996
1.1326612
1.1443707
1.1571595
1.1704883
1.1833779
1.1948395
1.2041474
1.2102633
1.2127242
1.212565
1.2103261
1.2065071
1.2016257
1.1960686
1.1902993
1.1847445
1.1788497
1.1725133
1.1673093
1.1646853
1.1637521
1.165004
1.1695436
1.1718683
1.1727898
1.1729225
1.1705622
1.1687686
1.1676952
1.1670907
1.1667641
1.1665909
1.1664981
1.1664493
1.0344709
1.0375829
1.0552699
1.0807328
1.0793046
1.0840264
1.0827736
1.0867938
1.0877343
1.091989
1.094987
1.100207
1.1054456
1.1124002
1.120239
1.1296588
1.140382
1.1525106
1.1656007
1.1789771
1.1915987
1.2025304
1.2109962
1.2158193
1.2171734
1.2160848
1.2129859
1.2084531
1.2029774
1.1969391
1.1908328
1.1848898
1.178707
1.172007
1.1671602
1.1648797
1.16414
1.1661294
1.1702623
1.1722782
1.1729734
1.1729152
1.1703782
1.1686629
1.1676391
1.1670634
1.166752
1.1665861
1.1664967
1.1664496
1.0395949
1.0426898
1.0621249
1.0862982
1.0840745
1.0889451
1.0877953
1.0919676
1.0930784
1.0975166
1.1007712
1.1062372
1.1118229
1.1191269
1.1273984
1.1372614
1.1484473
1.1609748
1.1743038
1.1876276
1.1998831
1.2102078
1.2175938
1.2210681
1.2214123
1.2193539
1.2154246
1.2102078
1.2041667
1.1976861
1.1912919
1.1849368
1.1784336
1.1715217
1.1671043
1.1651193
1.164613
1.1672776
1.1709587
1.1726927
1.1732488
1.1728692
1.1702088
1.168563
1.1675856
1.1670374
1.1667405
1.1665816
1.1664954
1.16645
1.0449675
1.0480879
1.0692283
1.0918752
1.089086
1.0941079
1.0930616
1.0973872
1.0986732
1.1032977
1.1068227
1.1125501
1.1185018
1.1261784
1.1349013
1.145218
1.1568667
1.1697607
1.1832482
1.1964118
1.2082044
1.2177793
1.2238845
1.2260552
1.2254034
1.2223731
1.2176457
1.2117775
1.2052036
1.1983226
1.1916595
1.1849358
1.1779918
1.1711056
1.1671004
1.1654101
1.1651311
1.1684153
1.1716247
1.1731094
1.1735585
1.1726865
1.1700554
1.168467
1.1675342
1.1670126
1.1667296
1.1665774
1.1664943
1.1664505
1.0505447
1.0537651
1.0765014
1.0975925
1.094335
1.0995036
1.0985575
1.1030374
1.104515
1.1093338
1.1131536
1.1191596
1.1255034
1.133572
1.1427629
1.1535456
1.1656438
1.1788538
1.1924039
1.2052978
1.2165355
1.225147
1.2298174
1.2308272
1.229106
1.2251387
1.2196502
1.2131646
1.2060965
1.1988629
1.1918244
1.1848283
1.1774222
1.1707617
1.1671287
1.1657464
1.1656978
1.1694659
1.1722284
1.1734949
1.1738621
1.1724375
1.1698953
1.1683722
1.1674848
1.1669892
1.1667195
1.1665736
1.1664933
1.1664511
1.0564638
1.0598643
1.0839511
1.1035533
1.0997863
1.1051038
1.1042764
1.1089198
1.1106149
1.1156433
1.1197826
1.1260893
1.1328455
1.1413287
1.151002
1.1622535
1.1747792
1.1882373
1.2017399
1.2142535
1.2248243
1.2322156
1.2354287
1.2353319
1.2325234
1.2276546
1.2214453
1.2143785
1.2068583
1.1993222
1.1918853
1.1846055
1.1767679
1.1704871
1.1672412
1.1660805
1.1663986
1.1703869
1.1727424
1.1737983
1.1740669
1.1721431
1.1697313
1.16828
1.1674379
1.1669672
1.16671
1.16657
1.1664924
1.1664518
1.0625044
1.0663049
1.0914345
1.1091895
1.1054406
1.1109289
1.1102435
1.1150626
1.1169992
1.12225
1.1267341
1.1333603
1.1405526
1.1494676
1.1596344
1.171353
1.1842661
1.1978846
1.2112236
1.2232453
1.2329644
1.2389167
1.2407687
1.2395313
1.2356495
1.2299229
1.2230353
1.2154266
1.207498
1.1996609
1.1918917
1.1842605
1.1760785
1.1702703
1.1674097
1.1664263
1.1672795
1.1711449
1.1731659
1.1740086
1.1741555
1.1718522
1.1695706
1.1681923
1.1673938
1.1669466
1.1667012
1.1665667
1.1664918
1.1664527
1.0688413
1.0732587
1.0990123
1.1151953
1.1113656
1.1170224
1.1164937
1.121492
1.1236924
1.1291787
1.1340308
1.1409978
1.1486442
1.1580096
1.1686765
1.1808477
1.1940911
1.2077647
1.2208194
1.2322371
1.2408457
1.2452277
1.2458395
1.2434003
1.2384882
1.2319518
1.2244303
1.2163229
1.2080312
1.199801
1.1918291
1.183775
1.1754113
1.1701067
1.1676275
1.1668097
1.1682619
1.1718079
1.1735304
1.1741626
1.1741765
1.1715746
1.1694172
1.16811
1.1673527
1.1669275
1.166693
1.1665637
1.1664913
1.1664537
1.0753272
1.0806774
1.1066022
1.1213972
1.1175588
1.1233942
1.1230385
1.1282282
1.130717
1.1364522
1.1416965
1.1490231
1.1571431
1.166973
1.1781405
1.1907378
1.2042327
1.2178417
1.2304863
1.2411491
1.2483729
1.2511903
1.2505894
1.2469389
1.2410418
1.2337479
1.2256384
1.2170773
1.2084661
1.1998419
1.1916465
1.1831194
1.1748361
1.1700073
1.1678888
1.1672445
1.1692614
1.1724067
1.1738639
1.1743369
1.1741624
1.1713159
1.1692736
1.1680335
1.1673146
1.1669097
1.1666854
1.166561
1.166491
1.1664548
1.0821916
1.0887565
1.1143074
1.1279323
1.1240668
1.1300718
1.1299142
1.1352949
1.1380975
1.1440948
1.1497538
1.1574601
1.1660686
1.1763765
1.1880368
1.2010149
1.2146618
1.2280773
1.2401797
1.2498543
1.2554653
1.2568715
1.2549681
1.2501459
1.2433187
1.2353229
1.2266746
1.2177052
1.2087619
1.1998396
1.1913389
1.1823279
1.1743538
1.1699793
1.168178
1.167727
1.1702476
1.1729648
1.1741918
1.1745737
1.1741072
1.1710813
1.1691411
1.1679629
1.1672791
1.1668931
1.1666784
1.1665586
1.1664909
1.1664561
1.0891813
1.0973035
1.1220018
1.1346776
1.1308792
1.1370697
1.1371272
1.1427148
1.1458566
1.1521289
1.158226
1.1663308
1.1754444
1.1862376
1.1983708
1.2116626
1.2253429
1.2384307
1.2498513
1.2582285
1.2621478
1.2622111
1.2589732
1.2530252
1.2453274
1.2366863
1.2275513
1.2182222
1.2088861
1.1997687
1.1909003
1.1814589
1.1739396
1.1699905
1.1684963
1.1682544
1.1711654
1.173487
1.1745248
1.1748345
1.173935
1.1708728
1.1690199
1.1678972
1.1672458
1.1668776
1.1666719
1.1665565
1.166491
1.1664576
1.0965979
1.1064977
1.1298653
1.1417636
1.1380479
1.1444184
1.1447142
1.1505089
1.1540156
1.1605777
1.1671354
1.1756613
1.1852923
1.1965733
1.2091413
1.2226561
1.2362341
1.2488469
1.2593784
1.2661724
1.2684655
1.2671624
1.2626005
1.2555845
1.2470805
1.2378518
1.2282833
1.218636
1.2089212
1.1996135
1.190335
1.1805553
1.1735887
1.1700591
1.1688395
1.168837
1.1719909
1.1739587
1.1748386
1.1750887
1.1736771
1.1706909
1.1689068
1.167835
1.1672143
1.166863
1.1666659
1.1665547
1.1664913
1.1664593
1.1042527
1.1162068
1.1378558
1.1491536
1.1455661
1.1521242
1.1526841
1.1586943
1.1625965
1.1694668
1.1765102
1.1854799
1.1956387
1.2073964
1.2203382
1.2339601
1.247291
1.2592728
1.2686277
1.2736365
1.2744407
1.2716862
1.2658541
1.257834
1.2485894
1.2388336
1.2288831
1.2188872
1.2089125
1.1993648
1.1896288
1.1796757
1.1733103
1.1701996
1.1691637
1.169548
1.1727019
1.1743756
1.1750883
1.1752416
1.1733677
1.1705083
1.1687967
1.1677754
1.1671846
1.1668494
1.1666605
1.1665533
1.1664919
1.1664612
1.1121485
1.1264644
1.1460541
1.1569096
1.1534689
1.1602136
1.1610653
1.1672964
1.1716292
1.1788303
1.1863844
1.1958196
1.2065064
1.2187111
1.2319389
1.2455315
1.2584558
1.2696223
1.2774547
1.2806553
1.2800003
1.2757848
1.2687401
1.2597859
1.2498688
1.2396527
1.2293737
1.2189937
1.2088375
1.1990059
1.1887542
1.1788865
1.1731002
1.1703909
1.1695109
1.1703666
1.1733009
1.1747283
1.1752619
1.1753061
1.1730328
1.1703244
1.1686898
1.1677186
1.1671566
1.1668368
1.1666557
1.1665521
1.1664927
1.1664634
1.1202982
1.1372553
1.1544752
1.1650287
1.1617581
1.1687006
1.1698848
1.1763507
1.1811539
1.1887113
1.1967973
1.2067125
1.2179137
1.2305109
1.2439105
1.2573172
1.2696621
1.2797386
1.2857628
1.2873021
1.2850873
1.2794575
1.2712693
1.261453
1.2509348
1.2403298
1.2297573
1.2190218
1.2086847
1.1985162
1.1877271
1.1782199
1.1729523
1.1706266
1.1698924
1.1712201
1.1738266
1.1750249
1.1753982
1.1753122
1.1727012
1.1701432
1.1685874
1.1676651
1.1671307
1.1668253
1.1666514
1.1665514
1.1664938
1.1664659
1.1286671
1.1484607
1.1631475
1.1735499
1.1704798
1.1776354
1.1791961
1.1859097
1.1912209
1.1991577
1.2077885
1.2181873
1.2298688
1.2427763
1.2562058
1.2692593
1.2808289
1.2894617
1.293559
1.2935016
1.289693
1.2827103
1.2734537
1.2628509
1.2518126
1.2408875
1.2299702
1.2190054
1.2084566
1.1978883
1.1866265
1.1776409
1.1728604
1.1708974
1.1703121
1.1720201
1.1742875
1.1752801
1.1755761
1.1752909
1.1723788
1.1699671
1.1684905
1.1676151
1.1671067
1.1668149
1.1666478
1.1665511
1.1664953
1.1664687
1.1372969
1.160182
1.1721503
1.1825367
1.179697
1.1870785
1.1890596
1.1960302
1.2018786
1.2102162
1.2193912
1.2302635
1.2423679
1.2554729
1.2687676
1.2812764
1.2918169
1.298657
1.3008963
1.2991947
1.2938165
1.2855539
1.2753091
1.2640027
1.2525335
1.2413322
1.2300647
1.2189279
1.208154
1.1971244
1.1854948
1.1771424
1.1728387
1.1711919
1.1707567
1.1727834
1.1747058
1.1755326
1.1757779
1.1752277
1.1720759
1.1697998
1.1683999
1.167569
1.1670848
1.1668056
1.1666447
1.1665511
1.1664971
1.1664719
1.1463047
1.1726007
1.1815776
1.1920492
1.1894804
1.1970759
1.1995377
1.2067638
1.213175
1.2219235
1.2316334
1.2429491
1.2553912
1.2685515
1.2815274
1.2932802
1.3024434
1.3072649
1.3077666
1.3043378
1.2974606
1.2880015
1.2768567
1.2649443
1.2531261
1.2416166
1.2300973
1.2187918
1.2077767
1.1962288
1.1843726
1.1767082
1.1728585
1.1715003
1.1712138
1.1734743
1.1751063
1.1757979
1.175997
1.1750932
1.1717983
1.1696449
1.168317
1.167527
1.1670649
1.1667973
1.1666422
1.1665516
1.1664993
1.1664755
1.1557154
1.1856549
1.191501
1.2021419
1.1998924
1.2076849
1.2106799
1.2181644
1.2251444
1.234312
1.2445322
1.2562405
1.2689041
1.2819484
1.2944009
1.3051458
1.3125308
1.3153272
1.3140836
1.3089358
1.3006368
1.2900727
1.2781266
1.2657151
1.2535807
1.2417636
1.2300849
1.218599
1.2073073
1.1951721
1.1833299
1.1763417
1.1729217
1.1718183
1.1717116
1.1740876
1.1754963
1.1760726
1.1762191
1.1748977
1.1715507
1.1695047
1.168242
1.1674888
1.1670469
1.1667898
1.1666402
1.1665525
1.1665019
1.1664795
1.1657242
1.1993001
1.2020351
1.2128926
1.2109928
1.2189538
1.222528
1.2302722
1.2378165
1.2474041
1.2580992
1.2701195
1.2828554
1.2955863
1.307278
1.3166662
1.3219623
1.3228885
1.3197779
1.3129856
1.30336
1.2917936
1.2791561
1.2663267
1.2538319
1.2418327
1.2300249
1.2183513
1.2067219
1.1939171
1.182445
1.1760534
1.1730428
1.1721304
1.1722804
1.1746128
1.1758513
1.176329
1.176427
1.1746375
1.171336
1.1693796
1.1681741
1.1674538
1.1670302
1.1667831
1.1666388
1.1665538
1.1665049
1.1664841
1.176669
1.213573
1.2131395
1.2242747
1.2228209
1.2309128
1.2351087
1.2431232
1.2512205
1.2612233
1.2723341
1.2845532
1.2971754
1.3093675
1.3200296
1.3276317
1.3307664
1.3298338
1.3248557
1.316501
1.3056555
1.293202
1.2799821
1.2667144
1.2539516
1.2418524
1.2299207
1.2180451
1.2059956
1.1925828
1.1816702
1.1758452
1.1732101
1.1724236
1.1729228
1.1750708
1.1761629
1.1765257
1.176528
1.1743234
1.1711528
1.1692664
1.1681111
1.167421
1.1670148
1.1667772
1.1666379
1.1665556
1.1665085
1.1664894
1.188252
1.2284605
1.2250076
1.2363189
1.2353874
1.2435785
1.2484355
1.2567544
1.2653987
1.2757922
1.2872296
1.2994856
1.3117709
1.3231596
1.3324252
1.3378784
1.3390103
1.3360773
1.3293084
1.3194985
1.3075544
1.294339
1.2806137
1.2669065
1.2540014
1.2418305
1.229782
1.2176817
1.2051241
1.1912255
1.1809882
1.1757013
1.1734116
1.1727299
1.1735827
1.175483
1.1764314
1.1766814
1.1765594
1.1739939
1.170977
1.1691591
1.1680515
1.1673902
1.1670005
1.166772
1.1666377
1.1665581
1.1665127
1.1664953
1.2009338
1.2434487
1.2375903
1.2490295
1.2487343
1.2570104
1.2625478
1.2712182
1.2803986
1.2911309
1.3027469
1.3148321
1.3265193
1.336802
1.3442335
1.3474166
1.3465583
1.3416198
1.3331514
1.3220095
1.3091
1.2952356
1.2809709
1.2669879
1.2539916
1.2417663
1.2296155
1.2172611
1.2041125
1.1898934
1.18038
1.1756067
1.1736416
1.1730581
1.1742184
1.1758385
1.1766563
1.1768631
1.1765421
1.1736746
1.1708055
1.1690561
1.1679945
1.1673609
1.1669872
1.1667676
1.1666381
1.1665611
1.1665176
1.166502
1.2152234
1.2583143
1.2511428
1.2626112
1.2630578
1.271389
1.2775734
1.2865982
1.2962609
1.3072214
1.3188131
1.3304666
1.3412563
1.3500462
1.3552469
1.3563064
1.3533149
1.3464492
1.3364033
1.3240708
1.3103363
1.2958854
1.2811349
1.266983
1.2539169
1.2416752
1.2294284
1.2167857
1.2029651
1.1886208
1.1798372
1.1755533
1.1738956
1.1734086
1.1748
1.1761579
1.1768671
1.1770628
1.176499
1.1733664
1.1706378
1.1689572
1.1679402
1.1673334
1.166975
1.166764
1.1666392
1.1665649
1.1665232
1.1665097
1.2311023
1.2733331
1.2657202
1.2770643
1.278461
1.2868394
1.2937291
1.3030146
1.3130015
1.32399
1.3352997
1.346229
1.3557828
1.3626263
1.3654589
1.3643977
1.359272
1.3505831
1.3391021
1.3257329
1.3112963
1.2962518
1.2811877
1.2668886
1.2537959
1.2415682
1.2292235
1.2162382
1.2016532
1.1874706
1.1793627
1.1755384
1.1741666
1.1737775
1.1753087
1.1764568
1.1770702
1.1772652
1.1764017
1.1730717
1.1704745
1.1688623
1.1678885
1.1673075
1.166964
1.1667613
1.1666411
1.1665694
1.1665297