/*--------------------------------*- C++ -*----------------------------------*\
  =========                 |
  \\      /  F ield         | OpenFOAM: The Open Source CFD Toolbox
   \\    /   O peration     | Website:  https://openfoam.org
    \\  /    A nd           | Version:  8
     \\/     M anipulation  |
\*---------------------------------------------------------------------------*/
FoamFile
{
    version     2.0;
    format      ascii;
    class       surfaceVectorField;
    location    "0.0300106";
    object      rhoUf;
}
// * * * * * * * * * * * * * * * * * * * * * * * * * * * * * * * * * * * * * //

dimensions      [1 -2 -1 0 0 0 0];

internalField   nonuniform List<vector> 
39600
(
(212.87176 -1.0086846e-16 -9.32713)
(197.73994 -1.5746578e-16 -9.3172035)
(197.41177 -1.3435345e-16 -8.5298617)
(240.67853 -3.8741527e-17 -10.616274)
(230.85622 5.1809989e-18 -10.56132)
(230.20045 -2.1303296e-16 -9.6325435)
(261.42428 9.7237926e-17 -11.62247)
(252.79548 8.8289283e-17 -11.687166)
(251.90202 1.7300736e-16 -10.645567)
(280.76123 -6.0208086e-17 -12.603391)
(272.35747 0 -12.695125)
(271.27574 -6.7910651e-17 -11.570053)
(300.30439 -1.9607228e-17 -13.640986)
(291.61379 -6.5393586e-17 -13.733754)
(290.37417 -1.0383638e-17 -12.521514)
(316.28219 6.3020182e-17 -14.573776)
(311.71001 5.6634866e-17 -14.841829)
(310.24414 9.1607068e-18 -13.549396)
(323.44387 0 -14.952306)
(322.38028 0 -15.68276)
(322.12945 4.4290242e-17 -14.399384)
(324.17241 -4.897684e-19 -14.969872)
(324.65795 -1.3284409e-18 -15.365374)
(324.73533 -3.7546647e-17 -14.127673)
(323.82181 5.1699335e-17 -14.932151)
(323.44619 -1.0851305e-18 -15.872355)
(323.53061 3.0939626e-17 -14.587102)
(323.87922 1.9231094e-17 -14.918861)
(324.16475 5.6821702e-17 -15.202447)
(324.20298 3.3494882e-17 -13.967249)
(323.65712 -1.5797446e-17 -14.890478)
(323.4646 -4.8811819e-17 -15.906356)
(323.50713 -5.4820131e-18 -14.624042)
(323.62775 -1.6828378e-17 -14.870747)
(323.81926 3.9567608e-17 -15.160712)
(323.84384 2.2911382e-17 -13.919571)
(323.43554 -4.7499127e-17 -14.843174)
(323.35217 -1.0005403e-16 -15.824822)
(323.37777 -5.3344199e-17 -14.547849)
(323.33982 5.0134604e-17 -14.815131)
(323.47999 5.5858587e-17 -15.19155)
(323.49917 1.5369693e-17 -13.937376)
(323.14435 6.5875333e-18 -14.779587)
(323.1276 2.0161722e-17 -15.676637)
(323.14991 2.2328167e-17 -14.403216)
(322.98625 -2.0616855e-17 -14.740324)
(323.10627 9.6923716e-19 -15.227415)
(323.12198 -1.9663346e-17 -13.959255)
(322.75719 3.6864476e-18 -14.694213)
(322.79673 -1.6213018e-17 -15.511635)
(322.80929 1.0281432e-20 -14.232017)
(322.53519 1.5855415e-18 -14.629983)
(322.63724 -6.5926072e-18 -15.230235)
(322.66025 3.383402e-18 -13.938288)
(322.25836 -1.9918805e-17 -14.579806)
(322.30683 -2.2851203e-17 -15.356385)
(322.31661 2.4997582e-18 -14.047761)
(321.93986 -2.0478104e-17 -14.525535)
(322.01751 2.9236305e-17 -15.194026)
(322.0212 -2.3833422e-17 -13.863233)
(321.52718 5.6176538e-18 -14.474226)
(321.6011 -3.1843486e-17 -15.223155)
(321.59624 -1.2170472e-19 -13.88097)
(321.02866 -2.7286035e-18 -14.390975)
(321.16553 3.9211347e-17 -15.103059)
(321.16279 6.1575119e-18 -13.762683)
(320.41722 -3.8049915e-18 -14.240236)
(320.62345 -3.2569104e-17 -15.012325)
(320.64383 -8.7214368e-18 -13.68678)
(319.69176 9.6471014e-18 -14.011226)
(319.99149 -5.2633664e-19 -14.790366)
(320.02748 8.2247404e-18 -13.489414)
(318.83847 1.3631322e-18 -13.674388)
(319.20868 -1.9116557e-19 -14.501146)
(319.26634 -1.2724074e-20 -13.239685)
(317.86367 -7.3574863e-18 -13.208485)
(318.29565 -1.1003003e-17 -14.071791)
(318.37658 1.3349774e-18 -12.861293)
(316.76414 -3.7325533e-18 -12.58735)
(317.24111 1.0475906e-17 -13.493828)
(317.34478 -1.0353794e-17 -12.352688)
(315.5493 -3.0921613e-18 -11.794003)
(316.06236 8.0140865e-18 -12.729049)
(316.1873 6.7397991e-18 -11.677675)
(314.25521 -2.7293147e-18 -10.831652)
(314.78552 -1.3230133e-17 -11.779687)
(314.92692 -8.1742196e-18 -10.837495)
(312.93337 1.2758433e-17 -9.7327205)
(313.4582 6.8045219e-17 -10.664917)
(313.60773 2.3531554e-18 -9.8447486)
(311.64103 -2.833552e-17 -8.5515418)
(312.1416 5.9319458e-17 -9.4367773)
(312.28921 6.3195812e-18 -8.7441011)
(310.42761 -6.8055404e-17 -7.3556294)
(310.88865 5.460651e-17 -8.1647009)
(311.02472 -1.6953735e-17 -7.5964032)
(309.33082 -4.4553479e-17 -6.2061924)
(309.74186 -9.4731045e-17 -6.9252593)
(309.8604 -3.1658767e-17 -6.4717642)
(308.37519 -1.4377639e-18 -5.144796)
(308.72884 7.6432702e-17 -5.7642239)
(308.8273 5.276942e-18 -5.413183)
(307.57905 3.2247836e-17 -4.2154596)
(307.86848 1.0309529e-16 -4.7162181)
(307.94386 3.6997244e-18 -4.4540445)
(306.96537 2.9112676e-17 -3.2728177)
(307.16939 -8.1775176e-17 -3.8414191)
(307.23984 2.3428611e-17 -3.6500378)
(306.47357 -4.7191091e-17 -2.3774997)
(306.55195 -1.4899001e-17 -3.0849251)
(306.61075 -3.4818942e-18 -2.9527666)
(306.02507 -1.1108361e-16 -1.782358)
(306.10626 1.2445154e-17 -2.3174332)
(306.12257 -1.6803914e-17 -2.2368256)
(305.69726 -7.0409216e-17 -1.1873621)
(305.8086 1.1905913e-16 -1.5420639)
(305.81917 -2.9045183e-17 -1.509151)
(305.46112 3.4585414e-17 -0.86050703)
(305.61712 1.3083156e-17 -0.75977778)
(305.57366 4.2531955e-18 -0.77768949)
(305.42119 -6.7636878e-17 -0.68651695)
(305.70118 1.8326614e-17 -0.15147038)
(305.65858 2.7750226e-18 -0.17965964)
(305.63526 -1.0885891e-17 0.015784038)
(305.65564 -4.0260255e-17 0.03321129)
(305.68395 -1.8476693e-17 0.078148933)
(305.7103 1.5213985e-16 0.98374142)
(305.35263 -1.3038658e-16 -0.20872984)
(305.49264 2.1258254e-17 -0.10938918)
(305.17205 1.1426429e-16 0.39141579)
(304.94274 -7.4909135e-18 -0.48266292)
(304.93507 1.465885e-17 -0.41728154)
(304.87504 1.1278597e-16 -0.30469656)
(304.82076 -7.5582777e-17 -0.48760056)
(304.78346 6.3616441e-18 -0.47304392)
(304.85725 1.0609789e-16 -0.30627392)
(304.87849 -7.5485409e-18 -0.3400526)
(304.87861 9.4370931e-18 -0.34426227)
(304.83727 4.9562368e-17 -0.16458343)
(304.86462 -5.2894153e-18 -0.15047065)
(304.86715 4.4721716e-18 -0.15676538)
(304.82091 -4.7350869e-18 -0.031188898)
(304.84341 -7.2110989e-17 -0.018801472)
(304.84633 4.0219766e-18 -0.021449986)
(304.80434 -1.7460148e-17 0.049519038)
(304.81613 -3.4356579e-18 0.042455424)
(304.81768 8.5267496e-23 0.041630124)
(304.79443 4.7809903e-17 0.067138535)
(304.79449 -2.3019887e-18 0.066945309)
(213.03141 -6.6435947e-17 -10.17267)
(198.27671 -1.5336427e-16 -10.118085)
(241.10554 1.2276114e-16 -11.56765)
(231.59036 1.1063802e-16 -11.501721)
(262.07168 1.9478281e-19 -12.65365)
(253.72905 -9.4015474e-17 -12.73259)
(281.57636 0 -13.707873)
(273.46309 8.0971169e-17 -13.822012)
(301.30075 -4.159579e-19 -14.818557)
(292.85285 0 -14.947075)
(316.9382 -4.9869005e-19 -15.780138)
(313.10341 5.8908359e-17 -16.129739)
(323.46655 -1.1938712e-18 -16.15113)
(322.62228 -4.9943684e-17 -16.962614)
(324.10235 -1.9288736e-18 -16.187276)
(324.67951 5.5128564e-20 -16.599698)
(323.76657 -5.9628451e-19 -16.167387)
(323.42418 -6.9348549e-17 -17.163995)
(323.84037 -1.3825333e-18 -16.167457)
(324.15338 1.2011613e-16 -16.439827)
(323.62264 -1.6591858e-18 -16.14829)
(323.42919 -4.9966512e-17 -17.205197)
(323.60299 -3.0771103e-17 -16.134449)
(323.7871 0 -16.414885)
(323.41653 -1.1393975e-17 -16.115273)
(323.32595 -3.3464457e-17 -17.127562)
(323.32436 2.9396626e-17 -16.091908)
(323.44942 2.7820908e-17 -16.468039)
(323.13132 1.6208433e-17 -16.063459)
(323.09496 7.610647e-18 -16.986011)
(322.97901 6.6375923e-18 -16.032026)
(323.07669 -7.791711e-19 -16.535439)
(322.75885 -2.703562e-17 -16.000847)
(322.76828 6.419076e-19 -16.843882)
(322.53419 -2.9174862e-17 -15.968311)
(322.61305 -3.0836365e-18 -16.57861)
(322.23182 2.0975271e-17 -15.935574)
(322.28945 -3.1305207e-17 -16.72365)
(321.88494 2.3148862e-17 -15.890281)
(321.99973 3.6932997e-17 -16.568377)
(321.45675 -4.8901954e-18 -15.829506)
(321.58102 -4.7255225e-17 -16.592993)
(320.95213 1.6022309e-17 -15.733003)
(321.13625 1.8751839e-17 -16.459245)
(320.33731 -3.2099672e-17 -15.563945)
(320.57777 -1.0387063e-17 -16.347556)
(319.61342 -1.0207826e-17 -15.296794)
(319.92038 -8.9619595e-18 -16.104359)
(318.76487 -1.1384496e-17 -14.924411)
(319.11868 -4.5935324e-17 -15.781933)
(317.77555 4.605842e-18 -14.403557)
(318.18112 -3.7544925e-17 -15.303077)
(316.65222 2.2248472e-17 -13.705521)
(317.10126 5.125947e-17 -14.65386)
(315.41865 0 -12.814354)
(315.90002 -8.4083343e-18 -13.795368)
(314.11207 4.8880062e-17 -11.737965)
(314.60719 0 -12.733131)
(312.78734 1.1479675e-16 -10.515002)
(313.27371 9.8631609e-17 -11.493321)
(311.5026 1.4168685e-16 -9.2079151)
(311.96234 -9.93996e-17 -10.135836)
(310.30537 4.3065648e-17 -7.8913548)
(310.72508 4.0144463e-17 -8.7385995)
(309.22922 7.7104313e-18 -6.6316831)
(309.60028 -5.4199071e-17 -7.3843468)
(308.29658 1.7723246e-16 -5.4748115)
(308.61188 1.444479e-16 -6.120769)
(307.517 9.3307581e-18 -4.4576514)
(307.77885 1.0383979e-16 -4.9860514)
(306.92252 -1.3254126e-16 -3.4081238)
(307.08466 -1.8203663e-17 -4.0395472)
(306.42579 4.0172922e-17 -2.5383684)
(306.49573 -1.5194191e-17 -3.221193)
(306.01228 2.2975695e-16 -1.8814546)
(306.08192 4.5076091e-17 -2.4052717)
(305.73664 2.1383524e-16 -1.2259089)
(305.79162 6.591361e-17 -1.5794479)
(305.53494 -3.3485729e-18 -0.91107102)
(305.66829 2.0043099e-16 -0.75355754)
(305.53549 4.6164344e-17 -0.50912049)
(305.72128 -1.8477369e-17 -0.13854987)
(305.51591 -1.5054191e-16 -0.029549004)
(305.64931 2.7086362e-16 -0.023710059)
(305.48804 -2.9593529e-16 0.67787952)
(305.24714 -5.9748926e-17 -0.30318767)
(305.14101 -1.8990867e-16 0.21788227)
(304.938 -8.1177137e-17 -0.54248991)
(304.8954 -2.0266218e-16 -0.3274747)
(304.84669 1.4027414e-16 -0.50578446)
(304.86578 -1.1974942e-16 -0.29496375)
(304.87854 -1.9275571e-16 -0.33870057)
(304.83444 -1.1983645e-16 -0.15633039)
(304.86234 -2.5020107e-16 -0.14651899)
(304.81807 -7.8124191e-17 -0.027722457)
(304.84063 -1.3494388e-16 -0.017294619)
(304.80241 5.7418022e-17 0.048576776)
(304.81474 1.0466948e-16 0.042904716)
(304.79428 2.5575064e-17 0.067294796)
(213.79725 -4.0740011e-19 -11.069057)
(198.7646 0 -10.951259)
(242.1211 -8.5157387e-17 -12.595559)
(232.36557 1.9899092e-20 -12.477454)
(263.2561 -2.8698333e-17 -13.780322)
(254.68934 -9.1960518e-17 -13.810149)
(282.91029 8.7242186e-17 -14.927578)
(274.59202 7.9693653e-17 -14.987717)
(302.75418 5.335359e-17 -16.132258)
(294.12834 -1.1087257e-18 -16.210489)
(317.87783 1.9084957e-17 -17.129076)
(314.46033 6.0837456e-17 -17.467488)
(323.61999 -5.2609252e-17 -17.470445)
(322.75673 -4.8769909e-17 -18.284241)
(324.10696 -6.037729e-17 -17.492466)
(324.63059 4.0664105e-18 -17.869444)
(323.75167 3.3757109e-17 -17.462486)
(323.34422 -6.9490402e-17 -18.487396)
(323.82008 8.5949397e-17 -17.457753)
(324.10015 1.8221266e-16 -17.70758)
(323.58827 -5.2261103e-17 -17.437993)
(323.3731 -9.5013535e-17 -18.537588)
(323.56971 0 -17.432193)
(323.75275 0 -17.706324)
(323.39689 0 -17.416617)
(323.27728 4.4186404e-18 -18.467888)
(323.31336 8.1327001e-18 -17.404397)
(323.4077 -2.2141942e-17 -17.788884)
(323.12853 -8.3278098e-18 -17.392144)
(323.05499 2.7225912e-17 -18.340782)
(322.97955 -6.7513402e-18 -17.381182)
(323.04347 -1.9714697e-17 -17.891712)
(322.75145 2.4357193e-17 -17.368456)
(322.73554 1.6364569e-17 -18.219337)
(322.51334 -2.88269e-18 -17.349715)
(322.57957 6.8754348e-18 -17.961684)
(322.20096 -2.1286073e-17 -17.320127)
(322.24973 -1.1342182e-17 -18.11256)
(321.84093 -2.5012063e-17 -17.275819)
(321.95613 -2.9274988e-17 -17.958542)
(321.39123 -2.9627204e-17 -17.205875)
(321.53526 -1.600141e-17 -17.973689)
(320.86573 -4.6501197e-18 -17.083096)
(321.07407 1.3998216e-17 -17.828366)
(320.24728 1.2173798e-17 -16.892403)
(320.49554 2.2300194e-17 -17.699571)
(319.5134 -4.0809453e-17 -16.605037)
(319.81669 -2.8053467e-17 -17.437436)
(318.63629 -7.2366815e-17 -16.190916)
(318.99174 1.7256413e-17 -17.08078)
(317.62047 3.4460657e-19 -15.607955)
(318.02645 1.3516641e-17 -16.547027)
(316.47349 2.6538494e-17 -14.825534)
(316.9197 -4.3166731e-17 -15.819447)
(315.22052 -9.187221e-18 -13.828367)
(315.69565 -8.2772359e-18 -14.859704)
(313.90373 3.9725103e-17 -12.630299)
(314.38846 -1.407712e-17 -13.67741)
(312.58021 -9.3717775e-17 -11.27756)
(313.05199 -1.1399013e-16 -12.306829)
(311.30815 -2.1331435e-16 -9.8412892)
(311.75025 4.9366524e-17 -10.816519)
(310.13235 -4.6591065e-17 -8.4032798)
(310.53368 -4.1806417e-17 -9.2931528)
(309.08219 6.0984246e-17 -7.0346746)
(309.43584 -8.9703471e-17 -7.8248144)
(308.17787 7.5914657e-17 -5.7847976)
(308.47702 6.8249229e-17 -6.4604538)
(307.41873 8.9399399e-17 -4.685286)
(307.67663 1.0683758e-16 -5.2443064)
(306.85407 9.9019137e-17 -3.5326525)
(306.98636 2.827676e-16 -4.2271907)
(306.38455 -1.6833014e-17 -2.6307791)
(306.43516 -2.7554884e-16 -3.3445587)
(305.9634 -1.2022947e-16 -2.0036503)
(306.06225 0 -2.4831951)
(305.73058 3.7782716e-17 -1.2556419)
(305.76834 -1.351425e-16 -1.6036252)
(305.50689 2.089112e-16 -1.0406985)
(305.73042 -1.4431036e-18 -0.74848822)
(305.62734 1.7487438e-16 -0.26066721)
(305.69946 2.9560914e-16 -0.13467934)
(305.57435 3.98162e-16 0.12465132)
(305.62435 -2.7702785e-17 -0.089067943)
(305.42179 1.6504047e-16 0.4883287)
(305.17964 1.5990403e-16 -0.39625369)
(305.10482 2.1652791e-16 0.077689512)
(304.9335 4.7080792e-16 -0.59168671)
(304.89372 1.8802032e-16 -0.35302251)
(304.86137 1.0982251e-16 -0.52238865)
(304.86385 -3.1742305e-16 -0.28873532)
(304.87898 -9.2521606e-18 -0.33754813)
(304.83401 -2.7731753e-16 -0.15100256)
(304.86014 -1.9735464e-16 -0.14205673)
(304.81759 2.3027057e-17 -0.02564169)
(304.83805 2.1380556e-16 -0.015410345)
(304.80204 8.1051262e-17 0.048187254)
(304.8135 3.4043367e-18 0.043523032)
(304.79411 -4.416138e-17 0.067496713)
(214.44435 4.1549983e-19 -11.970108)
(199.29635 0 -11.802863)
(242.95736 4.9680776e-19 -13.617494)
(233.12796 1.3891447e-18 -13.46985)
(264.25651 5.741987e-19 -14.894608)
(255.62495 7.641888e-19 -14.907027)
(284.06998 -3.083442e-19 -16.12843)
(275.6978 -6.8206943e-19 -16.172551)
(304.01731 1.3915899e-18 -17.420187)
(295.3844 4.9615222e-20 -17.498631)
(318.62412 3.0995077e-18 -18.441483)
(315.7317 -1.1024588e-18 -18.821751)
(323.64312 2.4660881e-18 -18.755964)
(322.8098 -3.5300227e-21 -19.623192)
(324.04159 8.9934799e-19 -18.779334)
(324.57384 -1.1512366e-19 -19.16326)
(323.68617 5.5848844e-17 -18.759644)
(323.28138 -2.239134e-18 -19.849135)
(323.7704 2.7129794e-17 -18.769262)
(324.06253 1.2164321e-16 -19.015552)
(323.56133 -5.1416065e-17 -18.764585)
(323.32741 -1.0154019e-16 -19.915209)
(323.55868 3.9692438e-18 -18.77675)
(323.73127 0 -19.03741)
(323.37489 -1.5119125e-17 -18.771009)
(323.22271 -1.8150816e-19 -19.845774)
(323.28529 -7.3793987e-18 -18.771599)
(323.36551 -2.9139769e-17 -19.147736)
(323.0883 1.9845405e-17 -18.770734)
(323.00817 4.2993349e-17 -19.729161)
(322.92825 0 -18.766701)
(322.99445 -2.077973e-17 -19.275889)
(322.69184 3.3979204e-20 -18.758919)
(322.68218 -3.954166e-20 -19.614245)
(322.44257 6.9360241e-20 -18.746892)
(322.53189 2.8914261e-17 -19.357401)
(322.11359 -1.7698293e-17 -18.71668)
(322.19239 3.7740576e-20 -19.508152)
(321.74072 -2.1547513e-17 -18.662912)
(321.8896 6.9025777e-19 -19.35665)
(321.29441 2.4211076e-17 -18.581069)
(321.45815 1.6619493e-17 -19.366575)
(320.77374 3.9704246e-17 -18.451069)
(320.9831 1.2858063e-17 -19.215955)
(320.14021 -1.2822698e-17 -18.247031)
(320.38576 -2.3379243e-17 -19.074108)
(319.38194 2.4996624e-17 -17.932736)
(319.68173 2.0303358e-17 -18.79077)
(318.48093 1.0194563e-16 -17.472788)
(318.82943 1.3757008e-17 -18.394415)
(317.43691 -2.4176213e-17 -16.822136)
(317.83355 -2.7700111e-17 -17.799999)
(316.26359 -8.0608992e-17 -15.948281)
(316.69761 -1.9196631e-17 -16.986867)
(314.99163 -1.2556627e-17 -14.838437)
(315.45021 0 -15.918443)
(313.66646 -1.5617998e-16 -13.513008)
(314.13016 1.1433204e-16 -14.60965)
(312.3473 1.1528753e-17 -12.026702)
(312.79392 -7.5722298e-17 -13.103647)
(311.09204 2.2778531e-16 -10.45955)
(311.50622 5.88035e-17 -11.478193)
(309.94227 -7.9668354e-17 -8.9003292)
(310.31532 1.4500935e-17 -9.8286706)
(308.92266 -9.8616307e-17 -7.4247786)
(309.2494 8.0864035e-17 -8.2475854)
(308.05055 9.4912555e-17 -6.0829772)
(308.32483 -1.4002742e-16 -6.7854631)
(307.33123 2.8014693e-16 -4.851474)
(307.55505 -1.0924481e-16 -5.4916261)
(306.77773 -2.7353359e-17 -3.6669932)
(306.88281 -1.4588423e-16 -4.4052434)
(306.33425 -2.8865802e-16 -2.7488103)
(306.37234 3.2344218e-18 -3.4583656)
(305.93014 0 -2.1118824)
(306.04193 -1.1519738e-17 -2.5528283)
(305.68197 -1.8911906e-16 -1.4721084)
(305.76448 -1.7079438e-17 -1.6207842)
(305.52251 5.21086e-17 -1.081429)
(305.76827 -1.8772661e-16 -0.74598993)
(305.64777 1.3110359e-16 -0.13761048)
(305.68252 1.7053857e-17 -0.14327026)
(305.58301 -2.9636795e-16 0.28762456)
(305.56795 -2.4398012e-16 -0.15112962)
(305.35627 4.1747449e-16 0.37773497)
(305.13389 -3.1027989e-16 -0.48633086)
(305.08912 3.9705324e-16 -0.0049277586)
(304.92757 -1.2934819e-17 -0.63399307)
(304.88951 -7.3945083e-17 -0.39480155)
(304.86992 -4.9642837e-16 -0.53636399)
(304.86123 1.3304996e-16 -0.28749176)
(304.87733 3.7310051e-16 -0.33670211)
(304.83235 2.5152175e-16 -0.14664797)
(304.85782 -3.5338678e-21 -0.13760361)
(304.81644 2.1782427e-16 -0.024585712)
(304.83567 -1.3248882e-16 -0.013482011)
(304.80151 -1.1843094e-16 0.047914653)
(304.81235 -1.0793115e-16 0.044175447)
(304.79392 -1.2519967e-18 0.067716556)
(215.01638 8.4613445e-19 -12.891766)
(199.73191 0 -12.667565)
(243.77885 1.6986381e-18 -14.675723)
(233.83467 -4.0961792e-20 -14.482014)
(265.28128 -3.4988062e-19 -16.055541)
(256.52084 -3.393188e-20 -16.031727)
(285.28145 -3.8926072e-19 -17.387016)
(276.78975 -1.2745667e-18 -17.39285)
(305.32501 -2.2959224e-18 -18.775321)
(296.66504 1.4651647e-16 -18.836464)
(319.36863 -4.2154486e-18 -19.822116)
(316.96194 -1.2732357e-16 -20.221964)
(323.67152 -2.5125314e-18 -20.111894)
(322.82637 -1.7024846e-18 -21.00942)
(324.01991 -3.0125416e-18 -20.144896)
(324.55323 -9.3718942e-17 -20.502685)
(323.671 5.2348692e-17 -20.130219)
(323.21442 -9.4930916e-20 -21.256234)
(323.75753 1.3414757e-17 -20.14825)
(324.03016 5.6814223e-17 -20.360639)
(323.54182 -5.9281473e-17 -20.141919)
(323.25358 -1.088008e-18 -21.323477)
(323.51382 -4.0386416e-18 -20.15176)
(323.68237 4.3916277e-17 -20.393476)
(323.3071 -1.1582547e-17 -20.147501)
(323.14839 -1.3447063e-17 -21.244574)
(323.21521 1.4384613e-17 -20.158159)
(323.31367 -4.5385505e-17 -20.524059)
(323.01363 8.3835218e-18 -20.163799)
(322.95246 2.4467066e-17 -21.127019)
(322.84293 -2.2484762e-17 -20.162455)
(322.93102 -9.7260337e-18 -20.667376)
(322.59447 2.5855923e-17 -20.157866)
(322.61498 -3.5343388e-17 -21.015348)
(322.3422 3.1227679e-17 -20.138646)
(322.4529 4.2999245e-17 -20.762359)
(322.02248 1.7986531e-17 -20.113316)
(322.11036 -3.6792169e-17 -20.916097)
(321.65503 3.6746512e-17 -20.064509)
(321.79706 3.9986448e-17 -20.770742)
(321.19812 5.8079241e-18 -19.982884)
(321.35401 1.641704e-17 -20.779967)
(320.65533 -4.5902831e-17 -19.843624)
(320.86061 -2.7719592e-17 -20.626269)
(319.9994 5.3620459e-18 -19.621648)
(320.24121 7.1613286e-17 -20.469051)
(319.21439 9.8243373e-18 -19.276146)
(319.50954 1.2495867e-16 -20.160171)
(318.28209 -1.0993949e-16 -18.76434)
(318.62645 -4.6463711e-17 -19.718517)
(317.20707 -2.3540179e-17 -18.038712)
(317.59747 -1.1239254e-17 -19.056423)
(316.00707 5.8369108e-17 -17.065793)
(316.4312 5.2609471e-17 -18.149776)
(314.71721 1.1435088e-16 -15.836053)
(315.16113 1.7926486e-17 -16.964848)
(313.38678 2.1179882e-16 -14.377485)
(313.83088 1.1240374e-16 -15.523067)
(312.07647 -4.2197794e-17 -12.754086)
(312.49913 -1.0713342e-16 -13.877341)
(310.84325 -1.4758538e-16 -11.05491)
(311.23072 -3.1139703e-16 -12.115033)
(309.72482 1.6667867e-16 -9.3754954)
(310.07096 1.4217387e-17 -10.339998)
(308.74094 6.2413406e-17 -7.7958962)
(309.04216 1.9077607e-16 -8.648235)
(307.90312 -3.4570706e-16 -6.3642608)
(308.15658 -1.47761e-16 -7.0928462)
(307.22549 -5.2828184e-16 -5.0144358)
(307.41652 -2.1351762e-16 -5.7243473)
(306.69074 -1.3021741e-16 -3.8105109)
(306.77624 -1.8098338e-16 -4.5703505)
(306.2689 2.8127609e-16 -2.8956853)
(306.31058 2.7613269e-16 -3.5621833)
(305.90993 -2.7911519e-17 -2.1570473)
(306.0113 -2.3041385e-17 -2.6124701)
(305.64645 5.6022262e-18 -1.5908641)
(305.77235 2.6604681e-16 -1.6314917)
(305.54083 -2.4545387e-16 -1.0477887)
(305.78813 3.7741112e-17 -0.74332579)
(305.61594 -3.2777767e-16 -0.1528469)
(305.66924 -1.773911e-17 -0.16775803)
(305.54857 -2.5456343e-16 0.27102)
(305.50053 1.3613614e-17 -0.22409955)
(305.31286 -7.7594539e-16 0.26388155)
(305.09466 9.6102335e-18 -0.56699855)
(305.07599 -8.5976332e-16 -0.059742058)
(304.91919 -3.1279942e-17 -0.6717659)
(304.8782 -1.4723176e-16 -0.44069903)
(304.87416 8.0927247e-18 -0.54860896)
(304.85721 2.8233601e-16 -0.28661124)
(304.87297 -4.9039359e-18 -0.33553667)
(304.83075 -3.7236694e-16 -0.14297487)
(304.85538 -1.7927403e-16 -0.13294582)
(304.8154 -4.6487866e-16 -0.023898495)
(304.83348 1.1892241e-16 -0.011421978)
(304.80111 -1.1295915e-18 0.04765383)
(304.81126 6.4290087e-18 0.044892764)
(304.79372 -1.2777059e-18 0.067955126)
(215.63609 -8.6267266e-19 -13.830662)
(200.22354 -1.7342111e-16 -13.557716)
(244.59986 -1.7321446e-18 -15.750591)
(234.58983 -9.347336e-19 -15.523865)
(266.27855 -8.3998911e-19 -17.236741)
(257.46112 -7.6128758e-19 -17.19066)
(286.46406 1.3072001e-16 -18.672396)
(277.92531 -1.3578812e-18 -18.648887)
(306.56203 4.5688442e-17 -20.161382)
(298.014 1.4202146e-16 -20.217639)
(320.00409 -1.3464528e-16 -21.22742)
(318.14063 7.3560398e-18 -21.648928)
(323.66545 -8.3615994e-17 -21.492904)
(322.82798 -1.0889125e-16 -22.416705)
(323.98314 -9.8178468e-17 -21.528141)
(324.53007 -8.5991489e-17 -21.854316)
(323.61024 -1.9215565e-19 -21.513172)
(323.14308 7.7100095e-17 -22.674531)
(323.69251 4.7190032e-17 -21.532073)
(323.98441 -6.4267648e-17 -21.711767)
(323.45859 9.6206445e-17 -21.528853)
(323.17501 4.4711495e-17 -22.738256)
(323.43534 3.9229266e-17 -21.534636)
(323.60171 8.7585455e-17 -21.759557)
(323.20876 -4.3937542e-17 -21.539763)
(323.07805 -3.6704078e-17 -22.655354)
(323.11275 -4.1088756e-17 -21.547783)
(323.23897 -1.394163e-17 -21.910845)
(322.91069 9.5105694e-18 -21.553554)
(322.87008 1.2930504e-17 -22.535145)
(322.74738 -2.023957e-17 -21.55877)
(322.84747 -4.1153076e-19 -22.072731)
(322.50706 -2.4930443e-17 -21.562371)
(322.52748 -1.6583416e-17 -22.430835)
(322.25412 -1.7051554e-17 -21.555175)
(322.35678 -5.7713785e-19 -22.186509)
(321.92325 -2.1597334e-17 -21.535964)
(322.00749 -4.8616732e-17 -22.345974)
(321.54065 2.2038981e-17 -21.48925)
(321.68099 -2.1722694e-17 -22.207453)
(321.06934 -1.2711141e-17 -21.405119)
(321.2235 -3.460576e-17 -22.214369)
(320.50776 7.9042596e-17 -21.256455)
(320.7092 -2.8363883e-17 -22.056109)
(319.82574 1.8434264e-16 -21.013636)
(320.06499 7.9667515e-17 -21.881044)
(319.00972 8.4759406e-17 -20.631164)
(319.30208 -2.2441821e-17 -21.541941)
(318.04433 4.7406057e-17 -20.061194)
(318.38463 -5.7540635e-17 -21.048547)
(316.93622 5.785578e-17 -19.252942)
(317.3198 1.6050919e-16 -20.311084)
(315.7088 1.5998991e-17 -18.172825)
(316.12183 1.1172479e-17 -19.302434)
(314.40248 7.0883272e-18 -16.815889)
(314.8297 1.5388081e-16 -17.992946)
(313.07005 -1.8132314e-16 -15.218738)
(313.49196 -1.3111312e-16 -16.411902)
(311.77318 -3.5309445e-16 -13.455319)
(312.16901 -1.8442411e-16 -14.62272)
(310.56726 -1.8366441e-16 -11.623731)
(310.92517 1.3553435e-16 -12.722589)
(309.48554 2.0215218e-17 -9.8259544)
(309.802 -1.2550143e-19 -10.823409)
(308.54248 1.7338966e-17 -8.1457023)
(308.81545 3.4239286e-17 -9.0239538)
(307.74155 -9.7437646e-18 -6.6274948)
(307.97338 -3.0388958e-16 -7.3807365)
(307.10563 1.2792246e-16 -5.1782414)
(307.26369 1.3705438e-17 -5.9400636)
(306.59973 1.7239651e-16 -3.9539278)
(306.66664 -1.9925375e-16 -4.7203183)
(306.20345 6.9364188e-18 -3.0263968)
(306.2485 2.6504999e-16 -3.6562604)
(305.89511 2.3779102e-16 -2.1957839)
(305.97153 9.9601541e-20 -2.66296)
(305.65129 3.2583022e-16 -1.6248062)
(305.78141 1.5247215e-17 -1.6366353)
(305.55701 2.6514286e-16 -1.0358959)
(305.79914 3.9191616e-16 -0.73928822)
(305.58861 3.1966398e-16 -0.18900585)
(305.65115 -2.7920381e-16 -0.20788391)
(305.48509 2.834225e-16 0.1732336)
(305.42641 -2.7238759e-17 -0.3080788)
(305.26264 7.7241087e-16 0.15172681)
(305.05537 3.3023935e-16 -0.64217549)
(305.05439 8.2752576e-16 -0.12877467)
(304.90835 2.3917467e-18 -0.70441824)
(304.87132 1.5242448e-16 -0.46209844)
(304.87317 2.7940344e-18 -0.55853438)
(304.85248 -4.4873674e-16 -0.2856093)
(304.86773 2.3878327e-16 -0.33368555)
(304.82877 2.8211431e-16 -0.13965044)
(304.85284 5.5263724e-16 -0.12809857)
(304.8142 6.0965528e-16 -0.02331887)
(304.83149 5.4627368e-16 -0.009247002)
(304.80066 7.1797225e-18 0.047360566)
(304.81024 2.0562418e-16 0.04566837)
(304.79351 -1.5073894e-16 0.068211883)
(216.18699 -1.8646803e-16 -14.795885)
(200.71729 -1.679772e-16 -14.467048)
(245.3898 0 -16.861602)
(235.33718 6.2098337e-20 -16.58435)
(267.27024 -1.2207882e-18 -18.458342)
(258.39616 -2.091275e-16 -18.371131)
(287.6685 -1.4636629e-18 -19.998719)
(279.05117 1.7740261e-16 -19.924613)
(307.78383 1.1505655e-16 -21.581176)
(299.38148 -1.4880847e-16 -21.626337)
(320.56762 4.1581626e-17 -22.646598)
(319.20082 1.2916368e-16 -23.084001)
(323.56396 -1.1299667e-16 -22.875811)
(322.77092 -1.0827447e-16 -23.832265)
(323.84368 7.2496728e-17 -22.905764)
(324.4513 -1.1527168e-19 -23.210339)
(323.47185 2.5568781e-17 -22.89273)
(323.04931 7.5419607e-17 -24.103459)
(323.55891 -7.5232374e-17 -22.913362)
(323.90819 -6.2709048e-17 -23.07145)
(323.31378 3.2911856e-17 -22.914531)
(323.08314 -5.4273284e-17 -24.165037)
(323.3017 2.3152739e-17 -22.924653)
(323.50149 7.7651026e-17 -23.140952)
(323.11842 -9.1703573e-18 -22.937825)
(322.98911 1.0675409e-17 -24.083059)
(323.02634 3.6729541e-17 -22.954565)
(323.14964 -5.613587e-17 -23.316957)
(322.82255 4.2959779e-18 -22.969663)
(322.77395 5.2111849e-17 -23.963955)
(322.65225 4.4721626e-18 -22.982691)
(322.74643 -3.2385999e-17 -23.502025)
(322.40294 5.9413871e-18 -22.993437)
(322.42074 -6.6718281e-19 -23.869545)
(322.14048 -2.753409e-17 -22.992622)
(322.23979 1.5807985e-17 -23.633693)
(321.80058 -5.0988425e-17 -22.978805)
(321.88069 -1.2335582e-17 -23.796439)
(321.40445 -7.6140022e-17 -22.934635)
(321.53812 -4.0886436e-17 -23.664386)
(320.91391 -5.0475428e-17 -22.847177)
(321.06325 1.2473878e-18 -23.667723)
(320.32721 -3.7025743e-17 -22.686163)
(320.52452 -2.8890098e-17 -23.502885)
(319.61589 -1.144264e-16 -22.418313)
(319.85201 -1.1305255e-17 -23.306337)
(318.7657 -1.5911426e-16 -21.993243)
(319.05459 -1.7802411e-16 -22.931748)
(317.76372 3.4118913e-17 -21.357869)
(318.09973 -5.6790548e-17 -22.379656)
(316.62085 1.2817434e-16 -20.458674)
(316.99701 -3.363578e-18 -21.558391)
(315.36619 1.3376167e-16 -19.262933)
(315.76701 1.1001121e-17 -20.438759)
(314.04557 4.4442129e-17 -17.771539)
(314.45459 -1.292343e-17 -18.996555)
(312.71514 -1.2900849e-16 -16.030802)
(313.11316 -3.5490162e-16 -17.270292)
(311.4369 2.6714047e-16 -14.125145)
(311.80432 3.9482142e-16 -15.334556)
(310.26397 3.3057204e-16 -12.161612)
(310.59098 1.3564083e-16 -13.296382)
(309.22448 1.0307361e-17 -10.248232)
(309.51015 1.504562e-17 -11.275244)
(308.32698 -2.4937281e-16 -8.4709278)
(308.57097 -3.7462502e-16 -9.3723097)
(307.56536 -3.1393746e-16 -6.8712151)
(307.77738 -4.2070881e-18 -7.6469669)
(306.97379 -2.8822519e-16 -5.3347694)
(307.09879 1.3610927e-17 -6.1363855)
(306.50279 -1.5843004e-16 -4.0979127)
(306.55553 3.2816887e-16 -4.853348)
(306.13348 2.8729442e-16 -3.1386615)
(306.18451 -2.5383642e-18 -3.7404947)
(305.87614 -2.2338287e-16 -2.2306598)
(305.92712 -7.476188e-16 -2.703601)
(305.66747 3.6492096e-17 -1.631552)
(305.79055 -2.5742448e-16 -1.639884)
(305.58243 -7.5626003e-17 -1.0001974)
(305.80221 3.7853441e-16 -0.73608793)
(305.56647 -6.5369368e-16 -0.23673302)
(305.63384 -2.6748092e-16 -0.26255811)
(305.42335 -2.6316863e-17 0.073962215)
(305.35857 -2.724245e-17 -0.39248953)
(305.21586 -4.0327638e-16 0.041809635)
(305.01709 6.3887547e-16 -0.71491849)
(305.03156 -8.2498335e-16 -0.18986515)
(304.89477 -4.6159784e-16 -0.73281073)
(304.86635 6.2256315e-17 -0.4673533)
(304.86858 -3.1223105e-18 -0.56583241)
(304.84745 1.2107394e-15 -0.28403817)
(304.86233 5.0268506e-16 -0.33073796)
(304.82667 8.1963578e-16 -0.1364466)
(304.85024 3.7636655e-16 -0.12303855)
(304.81292 1.7819224e-16 -0.022843382)
(304.82969 6.6129513e-21 -0.0069539216)
(304.80018 8.7168125e-17 0.047044918)
(304.80927 6.3923115e-18 0.046504832)
(304.79329 -3.0591807e-16 0.068487828)
(216.82445 1.6107223e-18 -15.772969)
(201.22311 3.587118e-16 -15.394423)
(246.23669 -1.8797094e-16 -17.979122)
(236.09085 -2.6149506e-16 -17.662166)
(268.30061 -6.4686946e-17 -19.686717)
(259.33962 -4.1276731e-16 -19.573291)
(288.92125 5.8852823e-17 -21.334126)
(280.18779 5.3656352e-16 -21.222277)
(308.99745 -1.566724e-16 -23.010514)
(300.7877 -3.0456948e-16 -23.069489)
(321.0876 1.2969569e-18 -24.072477)
(320.17452 -1.7237535e-19 -24.535378)
(323.50204 -6.4393966e-18 -24.270973)
(322.68439 -7.0300039e-18 -25.269504)
(323.78142 -3.1693625e-18 -24.306432)
(324.36947 9.2908184e-17 -24.584587)
(323.40727 0 -24.296075)
(322.94466 -7.9798287e-17 -25.556281)
(323.49273 -4.2891484e-17 -24.321041)
(323.82027 6.6542563e-17 -24.451529)
(323.23837 -2.0969142e-17 -24.324983)
(322.9739 -9.5105072e-17 -25.614721)
(323.21906 7.0735894e-17 -24.348986)
(323.40919 4.4774186e-17 -24.544865)
(323.018 -2.9914072e-17 -24.364087)
(322.87832 3.7057524e-17 -25.531777)
(322.92073 -4.9714608e-17 -24.385699)
(323.04105 -7.7130864e-17 -24.747116)
(322.7121 2.3034242e-17 -24.407374)
(322.6595 2.5169911e-17 -25.414483)
(322.53683 -3.9991071e-17 -24.427606)
(322.62607 2.3207689e-17 -24.953814)
(322.28094 7.6504934e-18 -24.445853)
(322.29356 -1.7840941e-17 -25.32901)
(322.00777 3.3004029e-17 -24.452138)
(322.10042 4.5483129e-17 -25.102122)
(321.6542 -7.9198642e-20 -24.442695)
(321.73018 1.3006342e-17 -25.266924)
(321.23981 3.1416174e-17 -24.399136)
(321.36948 6.4441853e-17 -25.140586)
(320.72763 2.4965456e-17 -24.306125)
(320.87457 5.2311708e-17 -25.13831)
(320.11347 -5.1645642e-18 -24.129966)
(320.30837 5.5922169e-19 -24.964213)
(319.36909 -5.9196326e-17 -23.832524)
(319.60401 -4.4860007e-19 -24.742054)