/*--------------------------------*- C++ -*----------------------------------*\
  =========                 |
  \\      /  F ield         | OpenFOAM: The Open Source CFD Toolbox
   \\    /   O peration     | Website:  https://openfoam.org
    \\  /    A nd           | Version:  8
     \\/     M anipulation  |
\*---------------------------------------------------------------------------*/
FoamFile
{
    version     2.0;
    format      ascii;
    class       volScalarField;
    location    "0.0300106";
    object      T;
}
// * * * * * * * * * * * * * * * * * * * * * * * * * * * * * * * * * * * * * //

dimensions      [0 0 0 1 0 0 0];

internalField   nonuniform List<scalar> 
20000
(
292.58417
292.41095
291.92875
290.83301
288.53951
283.95698
279.46368
278.80532
279.31663
279.31
279.7005
279.82325
280.17833
280.40596
280.78186
281.11477
281.55108
281.99817
282.53045
283.12071
283.81692
284.59654
285.46604
286.4179
287.4427
288.52921
289.66131
290.8205
291.96862
293.06622
294.07481
294.96931
295.73943
296.38173
296.89362
297.26642
297.55218
297.71323
297.76326
297.73345
297.48347
297.29716
297.49765
297.97567
298.1316
298.15852
298.08364
298.03883
298.01628
298.00554
292.4037
292.2192
291.72541
290.58903
288.20866
283.36094
279.19079
278.61826
279.12746
279.1139
279.50503
279.62714
279.98422
280.21481
280.59501
280.93601
281.38098
281.84718
282.41325
283.04158
283.76233
284.55986
285.44045
286.402
287.43941
288.54724
289.70687
290.8872
292.05005
293.15391
294.16046
295.04591
295.80302
296.43102
296.92523
297.29539
297.56697
297.70491
297.74393
297.62629
297.39618
297.2919
297.6729
298.00066
298.12618
298.14914
298.08407
298.04032
298.01731
298.00587
292.1854
291.99536
291.46492
290.26382
287.76634
282.62542
278.89461
278.43604
278.9605
278.94804
279.34606
279.47499
279.83218
280.07001
280.45863
280.81345
281.27626
281.76486
282.34533
282.98847
283.72364
284.53762
285.43324
286.41201
287.47963
288.61561
289.79775
290.99527
292.16709
293.27098
294.26949
295.14098
295.88151
296.49182
296.96722
297.33191
297.58185
297.69884
297.73862
297.56676
297.37951
297.28449
297.70874
298.02008
298.12882
298.15128
298.08329
298.04004
298.0173
298.00586
292.08023
291.874
291.31041
290.0461
287.42683
282.01015
278.70513
278.32318
278.85988
278.84421
279.24398
279.36196
279.73638
279.98593
280.38601
280.75575
281.2293
281.73029
282.32057
282.9753
283.71736
284.54051
285.45765
286.46657
287.55931
288.72068
289.92442
291.1359
292.31291
293.41282
294.39917
295.25276
295.97295
296.56167
297.01663
297.37089
297.59747
297.69197
297.70974
297.48948
297.34589
297.30006
297.76937
298.03805
298.13167
298.15072
298.08319
298.04019
298.01745
298.00591
291.90429
291.71372
291.13496
289.80955
287.0694
281.40856
278.56033
278.24429
278.77474
278.77299
279.17128
279.31133
279.69351
279.94975
280.35547
280.73221
281.21188
281.71958
282.31428
282.97666
283.73416
284.58326
285.52682
286.56243
287.68272
288.86855
290.09075
291.31251
292.4901
293.58108
294.55047
295.38189
296.07787
296.64137
297.07651
297.41145
297.61232
297.68786
297.67988
297.43616
297.30513
297.34073
297.80357
298.05658
298.13824
298.15121
298.08289
298.04012
298.01746
298.00593
291.88141
291.64671
291.03642
289.63278
286.75343
280.88293
278.48733
278.1976
278.75277
278.73664
279.15809
279.28731
279.67733
279.93901
280.34664
280.72883
281.21204
281.72904
282.33919
283.02248
283.80037
284.67139
285.64054
286.70351
287.849
289.0569
290.29461
291.52254
292.69601
293.77323
294.72104
295.52611
296.19393
296.72896
297.14381
297.45197
297.62554
297.68593
297.6431
297.39075
297.26626
297.40682
297.84321
298.07499
298.14858
298.15161
298.08273
298.0401
298.01748
298.00595
291.75089
291.55919
290.93626
289.464
286.42463
280.41033
278.44714
278.19279
278.74877
278.73623
279.15776
279.30372
279.67799
279.94485
280.35861
280.75308
281.24869
281.78233
282.40648
283.1077
283.90634
284.80209
285.79677
286.88591
288.05607
289.28413
290.53426
291.76443
292.92923
293.98802
294.90979
295.6844
296.32032
296.82481
297.21786
297.49247
297.63721
297.68499
297.60129
297.35747
297.23957
297.46416
297.87871
298.09439
298.16224
298.15198
298.08253
298.04003
298.01748
298.00596
291.75049
291.53482
290.87128
289.32074
286.08505
279.99755
278.43759
278.19033
278.75128
278.73684
279.17491
279.32608
279.71268
279.98978
280.41129
280.8175
281.32334
281.87232
282.51322
283.23505
284.0552
284.975
285.99517
287.11001
288.30325
289.54912
290.8083
292.03643
293.18783
294.22345
295.11467
295.85464
296.45536
296.92888
297.29592
297.53237
297.64687
297.68274
297.55967
297.33098
297.22191
297.51972
297.91382
298.11439
298.17665
298.15231
298.08235
298.03997
298.01747
298.00597
291.68853
291.50316
290.8193
289.19013
285.73909
279.63783
278.47219
278.25086
278.80282
278.80304
279.23586
279.38786
279.78303
280.06872
280.4978
280.91688
281.43488
282.00031
282.6574
283.39937
284.24154
285.18613
286.23181
287.37182
288.58714
289.84866
291.11369
292.33575
293.46934
294.47736
295.33368
296.03503
296.59821
297.04169
297.37531
297.57198
297.65652
297.68076
297.51168
297.31027
297.20937
297.57212
297.94693
298.13448
298.19163
298.15263
298.08212
298.03988
298.01745
298.00597
291.73113
291.52543
290.815
289.09709
285.39427
279.34539
278.5536
278.32061
278.88728
278.88631
279.32409
279.48484
279.88471
280.18087
280.61785
281.04999
281.57961
282.16163
282.8363
283.59961
284.46457
285.43429
286.50568
287.67039
288.90639
290.18114
291.44853
292.66028
293.77154
294.7474
295.56438
296.22358
296.74816
297.16116
297.4534
297.61113
297.67018
297.67271
297.46519
297.29259
297.19984
297.62317
297.97895
298.15412
298.20713
298.15283
298.08181
298.03971
298.01743
298.00597
291.73339
291.54123
290.81244
289.01669
285.03521
279.11211
278.66085
278.42695
279.00229
279.00663
279.44334
279.61041
280.01608
280.32231
280.76717
281.21269
281.75494
282.35433
283.04692
283.83206
284.72059
285.71606
286.81338
288.00242
289.25788
290.54349
291.80982
293.00718
294.09181
295.03109
295.8045
296.419
296.90547
297.28335
297.52937
297.64974
297.68969
297.65379
297.42028
297.27544
297.19793
297.67462
298.01054
298.17288
298.22264
298.15288
298.08138
298.03946
298.01737
298.00596
291.79152
291.59741
290.84172
288.96752
284.67341
278.94856
278.79471
278.55789
279.14249
279.14466
279.58758
279.76213
280.17282
280.48977
280.94283
281.40241
281.95772
282.57522
283.28707
284.09514
285.00817
286.02998
287.15346
288.36632
289.63975
290.93357
292.19518
293.37396
294.42748
295.32559
296.05166
296.6204
297.06957
297.40421
297.60212
297.68828
297.71367
297.62732
297.38149
297.25808
297.2278
297.72764
298.04365
298.19089
298.23705
298.15262
298.08079
298.0391
298.01725
298.00595
291.8576
291.66399
290.87953
288.9256
284.29965
278.83902
278.95013
278.71067
279.29984
279.30699
279.75344
279.9358
280.3519
280.68021
281.14208
281.61652
282.18604
282.82271
283.55473
284.38658
285.32505
286.37384
287.52371
288.75986
290.0497
291.34894
292.60212
293.75806
294.77596
295.62843
296.30435
296.8279
297.23832
297.52112
297.67142
297.72641
297.73442
297.59782
297.34981
297.23338
297.28561
297.78492
298.07983
298.20761
298.2477
298.15199
298.08003
298.03864
298.01709
298.00593
291.96953
291.75701
290.93274
288.89501
283.9289
278.79238
279.12526
278.88168
279.47652
279.48705
279.93818
280.12917
280.55117
280.89178
281.3633
281.85354
282.43825
283.09494
283.84828
284.70489
285.6697
286.74604
287.92241
289.18111
290.4855
291.78713
293.02795
294.15662
295.13414
295.93687
296.56138
297.04114
297.40599
297.63275
297.73729
297.76486
297.74987
297.56541
297.32392
297.21763
297.36242
297.84538
298.11994
298.22528
298.25463
298.15106
298.07908
298.03808
298.01689
298.00591
292.06391
291.83941
290.97348
288.85617
283.55567
278.80017
279.31304
279.06841
279.66838
279.68468
280.14045
280.34121
280.76964
281.12349
281.60544
282.11236
282.71326
283.39095
284.16667
285.04902
286.04112
287.14563
288.34854
289.62892
290.9457
292.24639
293.47062
294.5673
295.49961
296.24933
296.82274
297.25892
297.56843
297.73824
297.80156
297.80401
297.75923
297.53511
297.30378
297.2085
297.43255
297.90516
298.16253
298.24946
298.25853
298.14985
298.07792
298.03743
298.01667
298.00589
292.17494
291.93531
291.01661
288.81118
283.19679
278.86547
279.51696
279.27252
279.8773
279.89988
280.36032
280.57171
281.00692
281.3748
281.86777
282.39219
283.01007
283.7095
284.50858
285.41752
286.43775
287.57089
288.80021
290.10108
291.42785
292.72396
293.92712
294.98677
295.86932
296.56431
297.08786
297.47544
297.72283
297.83779
297.86667
297.84207
297.76303
297.50778
297.29173
297.20095
297.50302
297.96109
298.20288
298.28038
298.26032
298.14834
298.07656
298.0367
298.01641
298.00585
292.30092
292.04248
291.06074
288.75043
282.86361
278.98388
279.73551
279.49257
280.10235
280.13221
280.59755
280.82029
281.26259
281.64496
282.14969
282.69199
283.32796
284.05014
284.8738
285.81039
286.85969
288.02194
289.27739
290.59726
291.93112
293.21851
294.39557
295.41284
296.24175
296.88174
297.35597
297.68549
297.86845
297.9346
297.93129
297.88022
297.76514
297.48376
297.28576
297.19368
297.5743
298.01321
298.24031
298.31218
298.26122
298.14632
298.075
298.03591
298.01613
298.0058
292.44304
292.16376
291.10659
288.66487
282.56753
279.14948
279.96993
279.72963
280.34419
280.38195
280.85185
281.08647
281.53587
281.93344
282.45028
283.01161
283.66636
284.41201
285.26118
286.22624
287.30537
288.497
289.77803
291.1151
292.45285
293.72699
294.87255
295.8423
296.6152
297.20093
297.62208
297.88492
298.00556
298.0309
297.99245
297.91712
297.75702
297.46243
297.28402
297.19265
297.64849
298.06281
298.27387
298.34156
298.26005
298.14368
298.07327
298.03507
298.01582
298.00573
292.60379
292.30242
291.15946
288.55054
282.32266
279.33363
280.22057
279.98315
280.60184
280.64783
281.12214
281.36913
281.8261
282.23937
282.76947
283.34997
284.0249
284.79521
285.6712
286.66589
287.77575
288.99699
290.30275
291.65472
292.99244
294.24811
295.35619
296.27378
296.98981
297.52122
297.88027
298.07333
298.13867
298.12416
298.04914
297.94815
297.73658
297.44351
297.28743
297.20797
297.72601
298.11172
298.30279
298.36575
298.25674
298.14061
298.07143
298.0342
298.0155
298.00565
292.77527
292.45256
291.21584
288.39551
282.13147
279.55206
280.48438
280.2507
280.87333
280.92857
281.40741
281.66779
282.13272
282.56268
283.10641
283.70762
284.4034
285.19906
286.10287
287.12805
288.26929
289.52009
290.84939
292.21356
293.54691
294.77836
295.84309
296.70537
297.36472
297.83778
298.12575
298.2507
298.2702
298.21186
298.10083
297.96539
297.70879
297.42629
297.29984
297.24932
297.8062
298.16157
298.32761
298.3823
298.25237
298.13727
298.06951
298.03331
298.01518
298.00557
292.95452
292.61258
291.27936
288.19594
282.00015
279.8303
280.7604
280.53177
281.15859
281.22414
281.70779
281.98231
282.45581
282.90289
283.46163
284.0835
284.80174
285.62416
286.55729
287.61417
288.78751
290.06759
291.4188
292.79175
294.1155
295.3162
296.33202
297.13731
297.73921
298.14461
298.35802
298.42238
298.39675
298.29412
298.1488
297.97387
297.6786
297.41371
297.30775
297.32665
297.88801
298.2138
298.34968
298.39284
298.24741
298.13376
298.06754
298.0324
298.01485
298.00549
293.1465
292.78678
291.35515
287.95277
281.9355
280.11768
281.05037
280.82752
281.45823
281.53479
282.02314
282.31256
282.79502
283.26012
283.83435
284.47859
285.22003
286.07008
287.03362
288.12304
289.32884
290.63759
292.00865
293.38645
294.69472
295.85808
296.82076
297.56867
298.10793
298.43697
298.57712
298.59048
298.51543
298.37064
298.19473
297.97771
297.6497
297.40689
297.31457
297.43626
297.97024
298.26748
298.37578
298.39894
298.24216
298.13011
298.06552
298.03148
298.01452
298.00541
293.35517
292.97716
291.44474
287.6665
281.93346
280.39947
281.35412
281.13761
281.77159
281.86013
282.35319
282.65843
283.15032
283.63425
284.22522
284.89216
285.65863
286.53795
287.53346
288.65646
289.89503
291.2315
292.61966
293.99738
295.28338
296.40281
297.30954
297.9988
298.46514
298.71397
298.78877
298.75145
298.62618
298.44144
298.23946
297.97814
297.62427
297.40389
297.31968
297.54054
298.04855
298.31994
298.41068
298.40188
298.23662
298.12632
298.06346
298.03057
298.0142
298.00533
293.57529
293.17852
291.5454
287.34405
281.98885
280.70664
281.67003
281.46066
282.09838
282.19975
282.69804
283.01954
283.52196
284.02518
284.63415
285.32538
286.11796
287.02755
288.05609
289.2133
290.48454
291.84732
293.24924
294.62121
295.87779
296.94773
297.79728
298.42177
298.80607
298.97588
298.99451
298.90258
298.72839
298.5061
298.28027
297.96799
297.6045
297.40318
297.32693
297.6432
298.12087
298.36973
298.45119
298.40178
298.23077
298.12232
298.06138
298.02967
298.01389
298.00525
293.81517
293.38863
291.65224
286.99072
282.10824
281.02573
281.99878
281.79792
282.43894
282.5542
283.05748
283.39639
283.90974
284.43355
285.06169
285.77813
286.59884
287.54038
288.60332
289.79547
291.09907
292.48616
293.89749
295.25695
296.47663
297.49272
298.2835
298.83197
299.12937
299.22837
299.19093
299.04389
298.82253
298.56489
298.30993
297.95254
297.59229
297.40616
297.33791
297.74214
298.18705
298.41443
298.48846
298.39545
298.22396
298.11817
298.05931
298.02879
298.01358
298.00517
294.03884
293.59907
291.75529
286.61847
282.28979
281.36319
282.34109
282.14966
282.79295
282.92305
283.43167
283.78881
284.31446
284.85964
285.50873
286.25198
287.10183
288.07624
289.17446
290.40182
291.73701
293.14578
294.56134
295.90088
297.07686
298.03654
298.76248
299.22425
299.43525
299.4727
299.37543
299.17441
298.90851
298.61904
298.3234
297.93153
297.58605
297.41927
297.35931
297.8393
298.24728
298.45071
298.5183
298.3858
298.21659
298.11398
298.05728
298.02794
298.01329
298.00509
294.3348
293.84926
291.87063
286.25394
282.52823
281.71404
282.69529
282.51416
283.16004
283.30657
283.8212
284.19804
284.73688
285.30482
285.97596
286.74692
287.62788
288.63672
289.77133
291.03416
292.39971
293.82664
295.24001
296.55157
297.67783
298.57912
299.22842
299.59667
299.72937
299.7057
299.54813
299.29427
298.9865
298.67004
298.32992
297.90741
297.5837
297.44255
297.4021
297.93374
298.30295
298.47829
298.5366
298.37472
298.20905
298.10983
298.05529
298.02712
298.01301
298.00502
294.58378
294.07294
291.95443
285.89272
282.81316
282.07635
283.06126
282.89316
283.54191
283.70634
284.22751
284.62471
285.17807
285.76936
286.46425
287.26443
288.17746
289.22162
290.39327
291.69133
293.08539
294.52604
295.92995
297.20568
298.27774
299.1158
299.67532
299.94857
300.01341
299.9246
299.70802
299.40313
299.05618
298.71583
298.331
297.88426
297.58771
297.47229
297.47761
298.0236
298.35646
298.50085
298.54831
298.3631
298.20155
298.10576
298.05336
298.02632
298.01274
298.00495
294.87417
294.32431
292.03121
285.57376
283.14986
282.45589
283.44353
283.28884
283.93998
284.1231
284.65113
285.0697
285.63847
286.25435
286.9741
287.80453
288.7516
289.83253
291.04197
292.37479
293.79474
295.24343
296.62964
297.86213
298.87659
299.64029
300.10071
300.28548
300.28421
300.12964
299.85529
299.50165
299.11833
298.74903
298.31976
297.86502
297.59795
297.5025
297.57672
298.11237
298.40972
298.5242
298.55574
298.35132
298.19415
298.10178
298.05149
298.02556
298.01248
298.00488
295.11659
294.55715
292.06449
285.31249
283.51897
282.84948
283.83961
283.70053
284.35376
284.55701
285.09252
285.53328
286.11874
286.75999
287.50631
288.36862
289.35077
290.46932
291.71682
293.08329
294.52557
295.97555
297.33555
298.51853
299.47147
300.14528
300.50226
300.61031
300.53879
300.31979
299.98932
299.58996
299.17473
298.76382
298.29772
297.84948
297.61286
297.53724
297.7058
298.19905
298.46413
298.55591
298.56151
298.33951
298.18686
298.09788
298.04967
298.02482
298.01223
298.00481
295.44927
294.84821
292.09406
285.12747
283.90084
283.26074
284.25185
284.12886
284.78412
285.00843
285.55224
286.01587
286.61942
287.28703
288.06166
288.95699
289.97623
291.13358
292.4193
293.81771
295.27757
296.7208
298.04607
299.17433
300.05622
300.62772
300.88495
300.92028
300.77726
300.49537
300.11053
299.66841
299.22702
298.77096
298.26794
297.83845
297.62977
297.56731
297.82232
298.28127
298.51814
298.59591
298.55751
298.328
298.17958
298.09406
298.04792
298.02412
298.012
298.00475
295.73776
295.12257
292.06874
284.99203
284.30919
283.68572
284.67797
284.57428
285.23102
285.47801
286.03031
286.51804
287.14071
287.83642
288.64095
289.57139
290.62857
291.82527
293.14871
294.57647
296.04792
297.47568
298.75831
299.82741
300.62331
301.08383
301.25204
301.21237
300.99864
300.65584
300.21895
299.73687
299.27095
298.77286
298.23383
297.83257
297.65019
297.59619
297.93774
298.35643
298.56661
298.63402
298.54375
298.31568
298.17228
298.09034
298.04625
298.02346
298.01179
298.00469
296.03084
295.40973
292.01858
284.92763
284.739
284.12878
285.12124
285.03693
285.69515
285.96532
286.52732
287.03998
287.68386
288.40883
289.24551
290.21208
291.30908
292.54582
293.9061
295.35944
296.83513
298.23818
299.47103
300.47382
301.16735
301.51601
301.60327
301.4857
301.20332
300.80171
300.31557
299.79663
299.29601
298.76456
298.19918
297.82921
297.67559
297.62837
298.04614
298.42255
298.60587
298.66515
298.52614
298.30287
298.16509
298.08677
298.04466
298.02283
298.01158
298.00464
296.32817
295.70465
291.93408
284.93679
285.18488
284.58525
285.57893
285.51541
286.17597
286.47078
287.04384
287.58285
288.24977
289.00582
289.87628
290.88104
292.0184
293.29511
294.69042
296.16437
297.63582
299.00519
300.18222
301.10548
301.68386
301.92808
301.93497
301.73959
301.39076
300.93268
300.40069
299.85015
299.30685
298.74147
298.16864
297.82857
297.70005
297.67635
298.14436
298.47861
298.63411
298.68495
298.50695
298.29015
298.15815
298.08336
298.04315
298.02224
298.01139
298.00459
296.61715
296.00867
291.822
285.0329
285.64921
285.05814
286.05252
286.01182
286.67485
286.99588
287.58145
288.1482
288.84018
289.62872
290.53497
291.57869
292.7577
294.0742
295.50182
296.9899
298.44763
299.77464
300.88981
301.71525
302.17159
302.32306
302.24505
301.97434
301.56154
301.04944
300.47478
299.89805
299.31117
298.70572
298.14212
297.83499
297.72926
297.75191
298.23044
298.52633
298.65397
298.69797
298.48739
298.27785
298.15152
298.08012
298.04172
298.02168
298.01122
298.00454
296.90034
296.31549
291.68865
285.2123
286.12988
285.54826
286.54337
286.52726
287.19326
287.54213
288.1419
288.73767
289.45656
290.27903
291.22244
292.30676
293.52748
294.88266
296.33861
297.83303
299.26725
300.54381
301.58683
302.29743
302.6342
302.69675
302.53307
302.18953
301.71541
301.15222
300.53809
299.93353
299.31115
298.66033
298.12005
297.84712
297.76155
297.84623
298.31061
298.57055
298.67195
298.70676
298.46801
298.26611
298.14521
298.07705
298.04036
298.02116
298.01106
298.00449
297.17552
296.61859
291.55045
285.48112
286.62768
286.05722
287.05248
287.06363
287.73319
288.11154
288.72681
289.35281
290.10013
290.958
291.9402
293.06568
294.32868
295.72082
297.19972
298.6913
300.09228
301.31093
302.26525
302.8479
303.07617
303.04676
302.79912
302.38576
301.85313
301.2421
300.59262
299.94917
299.30048
298.60976
298.10386
297.86504
297.79666
297.95971
298.38761
298.61605
298.69597
298.71459
298.44929
298.25495
298.1392
298.07412
298.03908
298.02067
298.01091
298.00445
297.4534
296.91382
291.42363
285.82662
287.14418
286.58754
287.58221
287.62293
288.29679
288.70525
289.33762
289.99439
290.77232
291.66667
292.68912
293.857
295.16156
296.58765
298.08262
299.56136
300.91969
302.07233
302.9168
303.36755
303.49598
303.37143
303.04293
302.56296
301.97485
301.31962
300.64021
299.95551
299.27742
298.55981
298.09563
297.88869
297.83395
298.06945
298.4613
298.66185
298.72807
298.71104
298.43162
298.24428
298.13343
298.07133
298.03786
298.02021
298.01077
298.00441
297.74674
297.20631
291.33431
286.22003
287.68249
287.1431
288.13545
288.20681
288.88459
289.32412
289.97464
290.66377
291.47377
292.40658
293.47074
294.68128
296.02657
297.4824
298.98487
300.44031
301.74667
302.81943
303.53648
303.86074
303.89042
303.67096
303.26511
302.72199
302.08179
301.38617
300.67798
299.95671
299.23773
298.51505
298.09112
297.91916
297.87499
298.17764
298.53035
298.70496
298.76115
298.69252
298.41428
298.23378
298.12786
298.06867
298.03672
298.01978
298.01066
298.00438
298.02696
297.46515
291.28478
286.62922
288.23949
287.72209
288.71041
288.81429
289.49644
289.96824
290.63917
291.36184
292.20661
293.17911
294.28614
295.53964
296.92339
298.40302
299.90325
301.32484
302.57027
303.54346
304.1205
304.33091
304.25602
303.94505
303.46571
302.86306
302.17461
301.44332
300.69694
299.94879
299.185
298.47629
298.09096
297.95358
297.91938
298.27936
298.59147
298.74196
298.79117
298.66955
298.39627
298.22348
298.12254
298.06617
298.03565
298.01939
298.01055
298.00435
298.34018
297.69882
291.29965
287.1932
288.81626
288.32277
289.3067
289.44565
290.1335
290.63939
291.33285
292.09097
292.97212
293.986
295.13671
296.43248
297.85148
299.3474
300.83447
302.21159
303.38481
304.23608
304.67225
304.77382
304.5931
304.19427
303.64569
302.98731
302.25442
301.49279
300.70619
299.93191
299.12177
298.44397
298.0979
297.98743
297.97756
298.37018
298.64271
298.76883
298.81036
298.64385
298.37841
298.21358
298.11751
298.06383
298.03466
298.01903
298.01046
298.00433
298.65535
297.87866
291.37974
287.7506
289.41166
288.94708
289.92636
290.10325
290.79829
291.33956
292.05798
292.85274
293.77254
294.82865
296.02342
297.36023
298.80945
300.31251
301.77518
303.09722
304.1809
304.89155
305.19604
305.18621
304.90111
304.4188
303.80542
303.0954
302.322
301.5298
300.70967
299.90481
299.05258
298.41718
298.11013
298.02286
298.05803
298.44711
298.68548
298.78752
298.82386
298.61747
298.36122
298.20421
298.11281
298.06164
298.03374
298.01871
298.01039
298.00431
299.00617
298.01614
291.5458
288.34786
290.031
289.59902
290.57322
290.78959
291.49309
292.07103
292.81649
293.64941
294.60922
295.7086
296.94731
298.32253
299.79543
301.29487
302.72152
303.97753
304.94882
305.50821
305.69199
305.56599
305.1806
304.61964
303.9461
303.18882
302.37947
301.54889
300.70642
299.86471
298.98312
298.39563
298.12692
298.06038
298.14918
298.51652
298.72415
298.80289
298.83401
298.59121
298.34501
298.19545
298.10841
298.0596
298.03288
298.01842
298.01033
298.00429
299.36733
298.09063
291.79162
288.96556
290.67279
290.2794
291.24801
291.50644
292.21984
292.83562
293.61038
294.48249
295.48403
296.62707
297.90888
299.31861
300.80674
302.2909
303.66943
304.84503
305.6803
306.09018
306.15586
305.91308
305.43182
304.79739
304.06848
303.2682
302.42779
301.55843
300.69296
299.8078
298.92077
298.38227
298.14803
298.098
298.24116
298.58
298.76084
298.82389
298.84359
298.56558
298.32994
298.1873
298.10432
298.05769
298.03209
298.01815
298.01029
298.00429
299.78097
298.13329
292.13485
289.63184
291.34343
290.99116
291.9537
292.25589
292.98053
293.63533
294.44137
295.35403
296.3983
297.58537
298.90838
300.34701
301.84002
303.29642
304.61432
305.68839
306.36894
306.64251
306.58343
306.22759
305.65575
304.95336
304.17422
303.33524
302.46271
301.56336
300.66973
299.73665
298.86456
298.37516
298.1732
298.13414
298.33255
298.63876
298.79724
298.85093
298.84468
298.54145
298.31601
298.17971
298.10047
298.0559
298.03135
298.01793
298.01027
298.00429
300.2001
298.1304
292.55652
290.33061
292.04202
291.73576
292.69116
293.03941
293.77732
294.47176
295.3115
296.26567
297.35388
298.58445
299.94551
301.40537
302.89149
304.30731
305.55112
306.49731
307.0169
307.16071
306.97444
306.50996
305.85317
305.08836
304.26427
303.39182
302.48182
301.56211
300.63676
299.6549
298.81385
298.37096
298.20413
298.17159
298.42007
298.69286
298.83202
298.87913
298.83169
298.51956
298.30307
298.17254
298.09684
298.05422
298.03068
298.01773
298.01026
298.00429
300.66477
298.11072
293.05929
291.06945
292.77097
292.51546
293.46281
293.85877
294.61195
295.34696
296.22271
297.21959
298.35225
299.62509
301.0193
302.4907
303.95674
305.31787
306.46878
307.26311
307.62799
307.64087
307.32857
306.76105
306.02541
305.20391
304.34
303.43897
302.49223
301.55392
300.59444
299.56559
298.7695
298.37255
298.24005
298.21523
298.50118
298.74057
298.86171
298.90523
298.80991
298.49868
298.29057
298.16567
298.09339
298.05265
298.03006
298.01757
298.01028
298.0043
301.18393
298.07645
293.63308
291.84393
293.53034
293.33091
294.26969
294.71549
295.48645
296.26318
297.17734
298.21793
299.39511
300.70758
302.1279
303.59893
305.03127
306.32302
307.35623
307.982
308.20429
308.07978
307.64642
306.98187
306.17355
305.30136
304.40269
303.47101
302.49781
301.53764
300.54031
299.47496
298.73252
298.37878
298.27375
298.27494
298.5721
298.78201
298.88237
298.92046
298.78549
298.47769
298.27837
298.1591
298.09014
298.05119
298.02951
298.01744
298.01032
298.00433
301.76346
298.04024
294.27491
292.65741
294.32357
294.18454
295.11466
295.61176
296.40371
297.22332
298.17816
299.26317
300.48369
301.83138
303.26824
304.72567
306.10891
307.31403
308.20093
308.65689
308.73992
308.47743
307.92862
307.17363
306.29908
305.38275
304.45542
303.48961
302.49733
301.51246
300.46997
299.38977
298.70274
298.38897
298.30829
298.34037
298.63409
298.81742
298.89645
298.93213
298.75812
298.45695
298.26659
298.15288
298.0871
298.04985
298.02902
298.01736
298.01038
298.00436
302.40827
298.03604
294.98288
293.50906
295.15112
295.07841
296.00055
296.55079
297.36736
298.23103
299.22819
300.35747
301.61875
302.99484
304.43656
305.86528
307.18347
308.27812
308.99555
309.29374
309.23034
308.83408
308.17628
307.33761
306.4036
305.44976
304.49816
303.50025
302.49022
301.47775
300.38432
299.31279
298.67987
298.40305
298.34289
298.41408
298.68828
298.84822
298.90982
298.94173
298.72973
298.43685
298.25537
298.14704
298.08429
298.04863
298.0286
298.01731
298.01046
298.0044
303.12007
298.05703
295.75522
294.40256
296.01685
296.01676
296.93301
297.53675
298.38199
299.2898
300.3305
301.50244
302.79986
304.19506
305.62765
307.01188
308.24664
309.20169
309.73993
309.88681
309.67451
309.15031
308.39063
307.47543
306.48967
305.50467
304.52519
303.50651
302.47704
301.43433
300.28703
299.24249
298.66363
298.42105
298.37672
298.48469
298.73622
298.87677
298.92754
298.95127
298.70016
298.41777
298.24483
298.14161
298.0817
298.04753
298.02824
298.01731
298.01058
298.00445
303.89319
298.08426
296.59123
295.34676
296.92609
297.0048
297.91652
298.57498
299.45086
300.40353
301.48696
302.69871
304.02543
305.42791
306.83572
308.15739
309.28683
310.07404
310.43871
310.43172
310.07253
309.4273
308.57335
307.58945
306.55997
305.54844
304.54053
303.50745
302.45801
301.38254
300.18083
299.17898
298.65403
298.44201
298.40947
298.55358
298.77958
298.90529
298.94914
298.95645
298.67047
298.39992
298.23508
298.13664
298.07934
298.04654
298.02795
298.01735
298.01073
298.00452
304.72605
298.14497
297.48692
296.35009
297.88651
298.04636
298.95676
299.6688
300.57794
301.5745
302.69909
303.94573
305.29242
306.68794
308.05367
309.29356
310.28859
310.88964
311.09132
310.92439
310.42473
309.66635
308.72654
307.68304
306.61686
305.57696
304.54959
303.50366
302.43349
301.32216
300.06905
299.12142
298.64775
298.46651
298.43793
298.61963
298.81993
298.93413
298.97523
298.95349
298.64226
298.38367
298.22618
298.13209
298.07718
298.04565
298.02771
298.01743
298.0109
298.0046
305.62154
298.28907
298.42561
297.40857
298.90482
299.14618
300.05822
300.82191
301.76556
302.80465
303.967
305.24191
306.59656
307.96857
309.2733
310.40877
311.23784
311.65202
311.69173
311.36535
310.73241
309.86951
308.85301
307.75938
306.65922
305.59196
304.55415
303.49513
302.40187
301.24902
299.95975
299.0711
298.64613
298.49537
298.46777
298.68185
298.85769
298.96077
299.00222
298.94302
298.61593
298.36901
298.2181
298.12791
298.07519
298.04485
298.02753
298.01756
298.01112
298.0047
306.5387
298.55277
299.43828
298.53087
299.98309
300.30682
301.22381
302.03685
303.01557
304.09469
305.29072
306.58426
307.932
309.26198
310.48403
311.48642
312.12455
312.36462
312.23354
311.75438
310.99701
310.0393
308.95596
307.81898
306.68229
305.59911
304.5543
303.48257
302.36264
301.15728
299.86159
299.02808
298.6484
298.52535
298.50724
298.73729
298.89106
298.98057
299.02454
298.92575
298.59275
298.35576
298.21064
298.12401
298.07334
298.04413
298.02742
298.01774
298.01138
298.00481
307.48484
298.9062
300.50336
299.7186
301.12344
301.52909
302.45572
303.31656
304.32965
305.44596
306.66846
307.96856
309.29145
310.55848
311.6739
312.50949
312.95095
313.01967
312.7174
312.09309
311.22109
310.17923
309.0386
307.85732
306.69261
305.60101
304.55039
303.46582
302.31574
301.05362
299.77245
298.99235
298.65283
298.5546
298.55323
298.7875
298.9202
298.99243
299.03864
298.90618
298.57126
298.34325
298.20359
298.12034
298.07162
298.04349
298.02736
298.01798
298.01168
298.00495
308.38842
299.48056
301.62483
300.9725
302.32862
302.81507
303.75641
304.66349
305.7109
306.85867
308.09827
309.38805
310.66548
311.84548
312.82413
313.46519
313.72176
313.60932
313.14257
312.38292
311.40747
310.29259
309.10204
307.87666
306.69546
305.5982
304.5435
303.44587
302.26244
300.93959
299.69215
298.96375
298.65911
298.58339
298.60138
298.83239
298.94619
299.00108
299.05052
298.88459
298.55062
298.33123
298.19686
298.11685
298.07003
298.04295
298.02739
298.01828
298.01204
298.00512
309.16172
300.35945
302.80744
302.29691
303.60766
304.17843
305.13758
306.0813
307.16183
308.33277
309.5743
310.83404
312.04193
313.10824
313.91666
314.3529
314.42797
314.13379
313.51087
312.62702
311.56016
310.3821
309.14041
307.8847
306.69157
305.59069
304.53453
303.42279
302.20333
300.81756
299.62029
298.94163
298.66689
298.61044
298.64947
298.87117
298.96977
299.01156
299.0621
298.86148
298.53076
298.31966
298.19044
298.11356
298.06855
298.04249
298.02748
298.01865
298.01245
298.00531
309.83407
301.50352
304.0801
303.7201
304.9668
305.62352
306.58061
307.57729
308.68288
309.86455
311.08817
312.29382
313.40556
314.32653
314.93516
315.17744
315.06095
314.59192
313.82381
312.82855
311.68276
310.44855
309.1596
307.88379
306.68045
305.57983
304.52461
303.39735
302.13823
300.69011
299.55647
298.92579
298.67598
298.63414
298.69971
298.90551
298.99295
299.02303
299.07191
298.83702
298.5117
298.30856
298.18434
298.11048
298.06721
298.04212
298.02765
298.0191
298.01293
298.00553
310.46233
302.92011
305.43012
305.21906
306.41598
307.13255
308.13003
309.15498
310.27277