/*--------------------------------*- C++ -*----------------------------------*\
  =========                 |
  \\      /  F ield         | OpenFOAM: The Open Source CFD Toolbox
   \\    /   O peration     | Website:  https://openfoam.org
    \\  /    A nd           | Version:  8
     \\/     M anipulation  |
\*---------------------------------------------------------------------------*/
FoamFile
{
    version     2.0;
    format      ascii;
    class       volVectorField;
    location    "0.0300106";
    object      U;
}
// * * * * * * * * * * * * * * * * * * * * * * * * * * * * * * * * * * * * * //

dimensions      [0 1 -1 0 0 0 0];

internalField   nonuniform List<vector> 
20000
(
(205.95256 -3.0693365e-19 -9.3013878)
(240.16066 -2.288436e-16 -10.520814)
(262.38328 1.8529557e-16 -11.615355)
(281.47068 0 -12.574401)
(298.83804 -1.3584169e-16 -13.498324)
(314.11383 1.1666663e-16 -14.361377)
(320.04544 0 -14.959908)
(321.37673 0 -14.615651)
(320.45209 -1.0669951e-18 -15.093592)
(320.76226 1.1379012e-16 -14.435346)
(320.09018 -9.4669929e-17 -15.097772)
(320.0319 7.9135827e-17 -14.364465)
(319.37984 -1.3150996e-16 -14.985847)
(318.99405 5.4640761e-17 -14.352385)
(318.23844 4.312575e-17 -14.795918)
(317.52215 -3.7507178e-17 -14.326576)
(316.52959 4.925365e-19 -14.562892)
(315.42079 7.3514247e-18 -14.233902)
(314.03994 -5.4232969e-18 -14.294556)
(312.41612 -3.6110779e-17 -14.069468)
(310.46977 -2.3941027e-19 -14.028053)
(308.20176 1.2203136e-17 -13.835186)
(305.59984 -2.0428109e-17 -13.665457)
(302.64205 1.6631013e-17 -13.362655)
(299.35617 0 -12.995992)
(295.76174 2.8078463e-18 -12.499861)
(291.93425 -1.8414464e-17 -11.878391)
(287.96901 1.4719454e-17 -11.10512)
(284.00241 -2.4050041e-17 -10.189617)
(280.16708 2.3786412e-17 -9.153238)
(276.59747 -3.8010657e-18 -8.0435891)
(273.39469 -5.0982164e-17 -6.9193807)
(270.61686 -7.0323911e-17 -5.8426095)
(268.28741 0 -4.8478928)
(266.41412 -2.7895484e-18 -3.9599943)
(264.96818 6.5910507e-17 -3.2244409)
(263.85214 -2.5735381e-17 -2.5923829)
(263.1584 -5.6723363e-17 -1.951329)
(262.81212 -1.4398637e-16 -1.304937)
(262.8832 4.4067478e-17 -0.65532841)
(263.41273 1.5742245e-17 -0.13733949)
(263.66005 -1.3964846e-16 0.048843106)
(262.66243 1.5440791e-16 -0.13966762)
(261.44106 1.0092391e-16 -0.38561762)
(261.05576 9.4161467e-17 -0.40994631)
(261.07324 9.7193567e-17 -0.29161024)
(261.20766 8.3000263e-17 -0.1303555)
(261.2723 -7.8422311e-18 -0.01658214)
(261.29486 1.168539e-21 0.036276652)
(261.29999 -3.3327295e-17 0.057507068)
(206.57149 -3.2404369e-16 -10.12041)
(240.99465 2.3453405e-16 -11.477193)
(263.4882 3.719107e-19 -12.68154)
(282.7573 0 -13.70956)
(300.18648 0 -14.69658)
(315.38475 -9.2360378e-19 -15.594369)
(320.61641 0 -16.189653)
(321.85953 -2.6028767e-18 -15.812119)
(320.90838 -1.0848022e-18 -16.36419)
(321.23103 0 -15.658012)
(320.53842 -3.0140605e-18 -16.390207)
(320.4793 0 -15.609068)
(319.81142 -6.6977565e-17 -16.281311)
(319.41488 5.5585488e-17 -15.61461)
(318.63565 -2.8890089e-18 -16.087227)
(317.88972 3.858816e-17 -15.604455)
(316.85402 -3.1953108e-17 -15.858297)
(315.68543 -1.9947154e-17 -15.541047)
(314.2295 -3.876204e-17 -15.621552)
(312.52157 9.1488643e-17 -15.398218)
(310.50967 -6.0602067e-17 -15.346696)
(308.18375 6.2500118e-17 -15.132047)
(305.53935 -4.1431015e-17 -14.93322)
(302.542 -1.7296293e-17 -14.59636)
(299.19354 -3.5507368e-19 -14.183338)
(295.52707 -2.3009748e-17 -13.630431)
(291.62591 3.719079e-17 -12.933919)
(287.60637 0 -12.067385)
(283.60989 0 -11.044365)
(279.7737 9.7211887e-17 -9.8923575)
(276.2297 1.0807823e-16 -8.6654076)
(273.07288 1.457105e-16 -7.4289986)
(270.35065 -9.4973433e-17 -6.2501082)
(268.08028 1.3209907e-16 -5.1649055)
(266.27122 1.8031848e-16 -4.1990684)
(264.83595 -2.0585022e-16 -3.4004686)
(263.77884 0 -2.7168724)
(263.1595 7.7724965e-17 -2.0329997)
(262.8475 3.4747421e-16 -1.3455213)
(263.08704 -2.1435468e-17 -0.65236107)
(263.52631 1.5851357e-17 -0.12296682)
(263.63243 6.9886352e-17 0.00805719)
(262.36391 -3.7791504e-16 -0.21995364)
(261.40628 -1.1383814e-16 -0.44192774)
(261.08135 -2.2394865e-16 -0.42537818)
(261.08144 -1.1051692e-16 -0.29083424)
(261.20514 -9.2643941e-17 -0.127486)
(261.26913 -1.1630039e-16 -0.015596596)
(261.29269 -5.9334695e-18 0.036537303)
(261.29921 1.1683828e-16 0.057614278)
(207.44116 0 -10.999684)
(242.20636 -9.329167e-19 -12.511081)
(264.87179 -1.9392786e-16 -13.821542)
(284.25121 1.6597436e-16 -14.937468)
(301.68861 0 -16.009318)
(316.61954 1.1836259e-16 -16.948837)
(321.07808 -9.8201638e-17 -17.534279)
(322.22167 2.6527551e-18 -17.103298)
(321.24001 -1.3508664e-16 -17.699439)
(321.56969 2.3552849e-16 -16.928003)
(320.85115 -9.5036426e-17 -17.714077)
(320.77199 0 -16.885529)
(320.09371 0 -17.601223)
(319.6753 0 -16.908279)
(318.86142 1.767131e-17 -17.411432)
(318.07465 -3.9257845e-17 -16.92847)
(316.992 3.2501984e-17 -17.202361)
(315.77039 1.3532083e-17 -16.891044)
(314.27127 -2.2452568e-17 -16.974216)
(312.51965 -1.8616213e-17 -16.746114)
(310.46834 -3.0945066e-17 -16.678314)
(308.10118 -2.5600523e-17 -16.439553)
(305.39818 2.1005253e-17 -16.207396)
(302.32863 1.8055488e-19 -15.839506)
(298.8936 -8.4926187e-17 -15.383132)
(295.14341 -4.6472775e-17 -14.767337)
(291.17297 5.6843737e-17 -13.988685)
(287.1063 -1.5168051e-17 -13.021999)
(283.09125 0 -11.884851)
(279.26756 7.8934089e-17 -10.612086)
(275.76366 -2.8125912e-16 -9.2649147)
(272.66687 -7.3814196e-17 -7.9158263)
(270.01356 -1.6563731e-19 -6.6359923)
(267.81676 1.1879912e-16 -5.4621233)
(266.07819 1.0851519e-19 -4.4240672)
(264.66932 1.7296995e-16 -3.5641985)
(263.69375 -2.6061142e-17 -2.8263375)
(263.15493 0 -2.1028204)
(262.892 -2.3287621e-16 -1.3699198)
(263.29638 3.6599855e-16 -0.64592188)
(263.60301 -4.7636976e-17 -0.11554053)
(263.57985 3.9703676e-16 -0.049164115)
(262.18832 2.7485065e-16 -0.30123171)
(261.36374 -2.5288069e-17 -0.48814895)
(261.09028 4.6510063e-16 -0.44106577)
(261.08127 -2.1985481e-16 -0.28949419)
(261.20391 -3.3695121e-16 -0.12356561)
(261.26773 -1.1494673e-16 -0.01395225)
(261.29184 1.8676759e-16 0.037076044)
(261.29897 -7.4956327e-17 0.05778355)
(208.12734 0 -11.88602)
(243.16757 9.5202089e-19 -13.540419)
(266.01313 0 -14.9521)
(285.52213 1.310026e-18 -16.148053)
(302.98668 -2.2524828e-18 -17.301659)
(317.63779 5.7325267e-18 -18.266641)
(321.35167 -3.0291598e-21 -18.843995)
(322.43332 5.3904138e-18 -18.367203)
(321.41733 -4.5047136e-18 -19.029099)
(321.74745 1.2735568e-16 -18.205305)
(320.99711 -9.3554618e-17 -19.064388)
(320.92 0 -18.193766)
(320.20855 8.6523216e-18 -18.961063)
(319.76716 -4.3280607e-17 -18.247653)
(318.92095 3.5875342e-17 -18.780574)
(318.10177 0 -18.289654)
(316.98686 0 -18.571045)
(315.73253 7.3317367e-20 -18.255629)
(314.2065 7.4396654e-20 -18.334523)
(312.42434 -3.7997093e-17 -18.097725)
(310.33416 -2.6858777e-19 -18.009817)
(307.91152 5.1656298e-17 -17.75208)
(305.13237 2.1470263e-17 -17.49626)
(301.97267 -5.2666835e-17 -17.096258)
(298.45268 1.1531121e-16 -16.590582)
(294.62338 7.0448967e-17 -15.907557)
(290.59046 -1.3437385e-16 -15.041105)
(286.48813 0 -13.968634)
(282.46903 -2.5122369e-17 -12.712895)
(278.67367 -2.7942987e-16 -11.316496)
(275.22569 3.6409368e-16 -9.8481183)
(272.20336 0 -8.3871117)
(269.6324 -1.5539964e-16 -7.0080346)
(267.52175 2.2298139e-19 -5.7480029)
(265.85251 1.8378903e-16 -4.6415787)
(264.49641 3.1391772e-16 -3.7217088)
(263.60868 -4.4675617e-16 -2.9284586)
(263.1475 0 -2.1670792)
(262.96343 0 -1.3883495)
(263.47016 -3.6748845e-16 -0.64355774)
(263.67301 5.5690058e-16 -0.11722896)
(263.43671 -4.4432062e-16 -0.10396145)
(262.04891 -1.4889191e-19 -0.38027305)
(261.32379 8.3283668e-16 -0.5261266)
(261.09197 -2.7809807e-16 -0.45370335)
(261.0792 2.0495436e-16 -0.28882284)
(261.20206 4.7247944e-22 -0.11984417)
(261.26635 4.8464213e-16 -0.012363303)
(261.29117 -1.8369072e-16 0.037609794)
(261.29875 0 0.057967553)
(208.72396 0 -12.790953)
(244.03889 1.9394699e-18 -14.598102)
(267.05669 1.574987e-18 -16.121439)
(286.68816 -2.6768459e-18 -17.404053)
(304.17499 2.2977637e-18 -18.651344)
(318.48942 -7.7803376e-18 -19.638404)
(321.46301 -1.4087713e-21 -20.215847)
(322.50904 -5.4882967e-18 -19.695778)
(321.47325 0 -20.427415)
(321.811 1.1434339e-16 -19.542514)
(321.03892 -1.0788291e-16 -20.465271)
(320.95925 0 -19.537397)
(320.19516 -8.8054397e-18 -20.343579)
(319.73775 -1.4651842e-17 -19.60454)
(318.87133 4.8856719e-17 -20.159658)
(318.03384 -4.0466381e-17 -19.658681)
(316.89861 -7.681608e-20 -19.944311)
(315.61805 5.5902087e-17 -19.621073)
(314.05774 0 -19.690858)
(312.23068 3.8515869e-17 -19.450896)
(310.08261 3.2002729e-17 -19.35345)
(307.584 -2.6191905e-17 -19.08112)
(304.71978 -6.5090095e-17 -18.797663)
(301.4718 8.9575521e-17 -18.36109)
(297.8661 -8.7617526e-17 -17.801147)
(293.96176 -1.1996576e-16 -17.044681)
(289.87476 9.7117841e-17 -16.083907)
(285.74849 0 -14.899677)
(281.74005 2.2845269e-16 -13.520748)
(277.98892 1.4156822e-16 -11.998065)
(274.61261 -2.5611656e-16 -10.40799)
(271.67924 2.5261023e-17 -8.8364543)
(269.20459 2.9385412e-16 -7.3605155)
(267.19185 -2.4190225e-16 -6.0183565)
(265.59085 -3.7023693e-16 -4.8467711)
(264.31816 -5.6215689e-16 -3.868746)
(263.52497 4.4964765e-16 -3.0215648)
(263.13284 -1.9761805e-17 -2.2225408)
(263.03622 -2.9328496e-17 -1.3999808)
(263.59136 4.3377005e-17 -0.64212365)
(263.74254 -5.2637458e-16 -0.13080307)
(263.25466 2.3465363e-17 -0.15539904)
(261.93537 -5.3269251e-16 -0.45495852)
(261.28055 -8.5631496e-16 -0.56054613)
(261.08077 -5.7265337e-16 -0.46500944)
(261.0755 4.3464213e-16 -0.2879988)
(261.20017 3.2561504e-22 -0.11592701)
(261.26506 -7.1822034e-16 -0.010654765)
(261.29063 0 0.038200125)
(261.29859 -2.1687257e-18 0.05816795)
(209.23083 0 -13.707457)
(244.81089 -1.9771974e-18 -15.666823)
(267.99607 -1.606557e-18 -17.305695)
(287.74565 0 -18.678961)
(305.25854 2.9506284e-16 -20.029596)
(319.17546 -2.4534244e-16 -21.028762)
(321.43469 -3.3456972e-18 -21.608646)
(322.52328 -1.7870886e-16 -21.038046)
(321.41972 -1.866153e-19 -21.837235)
(321.78951 -1.8115636e-19 -20.884285)
(320.96971 1.0328179e-16 -21.869686)
(320.90913 8.6082421e-17 -20.88877)
(320.10484 -1.7733878e-17 -21.73601)
(319.63476 -7.4413586e-17 -20.967941)
(318.74835 0 -21.537018)
(317.8865 2.0627633e-17 -21.024632)
(316.72203 -6.8566801e-17 -21.314881)
(315.40249 2.8546711e-17 -20.994282)
(313.79253 -7.0936823e-17 -21.063149)
(311.904 3.9033752e-17 -20.819574)
(309.6873 0 -20.708544)
(307.11158 -2.6904522e-17 -20.419767)
(304.16213 1.985424e-16 -20.10681)
(300.8258 1.4541832e-16 -19.62912)
(297.13708 0 -19.009024)
(293.1633 9.7154866e-17 -18.172829)
(289.03128 0 -17.111137)
(284.89376 3.2185394e-17 -15.809314)
(280.91119 -2.4932996e-17 -14.303126)
(277.22039 -3.2847283e-16 -12.652289)
(273.93139 -2.924781e-16 -10.940876)
(271.10151 -2.2068785e-19 -9.2609434)
(268.73688 3.9577969e-17 -7.691267)
(266.83071 -1.5217424e-17 -6.2720296)
(265.30126 0 -5.037875)
(264.13802 2.4763938e-16 -4.0036708)
(263.44584 2.6588115e-17 -3.1064628)
(263.11203 -1.9862021e-17 -2.269999)
(263.12479 4.8630858e-16 -1.4066711)
(263.68442 2.1725769e-17 -0.63921475)
(263.80405 4.9511982e-16 -0.1595905)
(263.06513 0 -0.22967245)
(261.82512 5.4942469e-16 -0.51851654)
(261.23358 8.0435601e-16 -0.59066102)
(261.05785 5.8865613e-16 -0.47449979)
(261.07082 -4.4543205e-16 -0.2867948)
(261.19809 -3.0842337e-16 -0.11186186)
(261.26375 9.3115395e-16 -0.0088540947)
(261.29011 1.110488e-17 0.03883546)
(261.29844 0 0.058383128)
(209.68647 -3.5858992e-16 -14.648813)
(245.5333 0 -16.769125)
(268.8826 0 -18.528706)
(288.74397 -2.783115e-18 -19.989055)
(306.28469 -5.8274107e-22 -21.442535)
(319.73892 2.5383631e-16 -22.431675)
(321.32734 -2.1100419e-16 -23.007983)
(322.38695 5.6779233e-18 -22.376027)
(321.2731 1.5175157e-16 -23.243755)
(321.63707 -1.2598474e-16 -22.219826)
(320.80917 -1.3144404e-17 -23.269367)
(320.70966 8.7553564e-17 -22.239613)
(319.93157 -5.4554768e-17 -23.129694)
(319.44291 4.5471911e-17 -22.336445)
(318.52853 2.5233553e-17 -22.926594)
(317.63208 -2.0965363e-17 -22.409217)
(316.4275 3.4847645e-17 -22.702991)
(315.05826 -2.9033362e-17 -22.382074)
(313.39498 -2.4270198e-17 -22.445491)
(311.44308 -7.9832928e-17 -22.198188)
(309.1548 -6.5960168e-17 -22.072699)
(306.49829 -2.7358678e-17 -21.765296)
(303.46247 -4.4788994e-17 -21.41897)
(300.03878 -1.8433355e-16 -20.895283)
(296.26938 -1.0620699e-16 -20.208977)
(292.23201 1.9800506e-16 -19.286165)
(288.06467 2.0214768e-17 -18.116718)
(283.92905 2.4405091e-16 -16.691579)
(279.98775 -2.0822504e-16 -15.054497)
(276.37328 -9.2782081e-19 -13.274306)
(273.1871 5.2562539e-16 -11.442657)
(270.47538 0 -9.6571847)
(268.23332 2.005846e-17 -7.9978227)
(266.4374 -5.0875162e-16 -6.5069622)
(264.99063 2.3562271e-17 -5.212754)
(263.95692 -5.8808012e-16 -4.1245546)
(263.37053 4.2831381e-16 -3.1830322)
(263.07568 1.995168e-17 -2.3093074)
(263.24162 -4.5870504e-16 -1.4108731)
(263.75314 6.5364217e-16 -0.63556838)
(263.8423 -9.757391e-16 -0.2022539)
(262.87645 -4.6891926e-17 -0.30076128)
(261.71964 1.7112905e-17 -0.58364308)
(261.18266 -8.0214387e-16 -0.61626729)
(261.02647 -5.8618995e-16 -0.48187028)
(261.06578 8.5825672e-16 -0.28478137)
(261.19597 1.261911e-15 -0.10761602)
(261.26243 7.0933584e-24 -0.0069500042)
(261.28959 3.4393113e-16 0.039520171)
(261.29829 -2.6110534e-16 0.058613804)
(210.12236 2.9074776e-18 -15.598332)
(246.21815 1.2822504e-19 -17.871417)
(269.7204 -4.3074178e-16 -19.750346)
(289.68339 3.6602904e-16 -21.296444)
(307.24558 -3.012055e-16 -22.860483)
(320.17462 8.1971482e-18 -23.828697)
(321.12812 -6.9283978e-18 -24.411914)
(322.20335 -5.7714715e-18 -23.720003)
(321.05356 0 -24.664569)
(321.42552 0 -23.56814)
(320.56574 -9.3652413e-17 -24.685288)
(320.46484 6.6595663e-17 -23.60888)
(319.64809 7.4196618e-17 -24.542566)
(319.13587 -1.5409247e-16 -23.724049)
(318.19001 7.6968821e-17 -24.329375)
(317.25699 -4.2496163e-17 -23.806372)
(316.01126 -3.536018e-17 -24.101644)
(314.59124 5.8933498e-17 -23.781452)
(312.8711 0 -23.838003)
(310.85213 -1.69113e-19 -23.585408)
(308.48925 6.6925854e-17 -23.442608)
(305.75005 -2.7820188e-17 -23.113677)
(302.62666 2.2666999e-17 -22.730005)
(299.11595 -1.5031936e-16 -22.154895)
(295.26873 -4.3000478e-19 -21.395776)
(291.17406 -2.0046057e-16 -20.37908)
(286.98162 0 -19.094879)
(282.86147 -2.6310288e-16 -17.540895)
(278.97688 -4.2366009e-16 -15.769807)
(275.45458 6.9474201e-16 -13.859768)
(272.38675 -2.8218557e-16 -11.909733)
(269.80767 2.6114449e-17 -10.022399)
(267.69813 -6.6726672e-16 -8.2785335)
(266.01117 4.9710684e-16 -6.7210014)
(264.66882 0 -5.3697567)
(263.77542 1.1477852e-15 -4.2301137)
(263.29552 -4.305822e-16 -3.2512466)
(263.04509 -1.3032406e-15 -2.3395468)
(263.34856 1.4853708e-17 -1.4138075)
(263.8006 -1.7087965e-19 -0.63387333)
(263.84688 5.1245829e-16 -0.25685002)
(262.70067 0 -0.37505521)
(261.61794 1.0797077e-15 -0.64314813)
(261.12889 1.2483873e-17 -0.63910929)
(260.99154 5.8336981e-16 -0.48696094)
(261.0609 9.30883e-23 -0.281677)
(261.19384 -6.2505718e-16 -0.10318655)
(261.26111 -2.1047257e-22 -0.0049422617)
(261.28906 -3.3818685e-16 0.040255701)
(261.29814 -2.6340082e-16 0.058860537)
(210.47952 7.3822599e-16 -16.565102)
(246.81354 -5.3975863e-16 -18.997983)
(270.47006 -4.2912876e-16 -21.003238)
(290.5303 7.4055913e-16 -22.634519)
(308.10441 -3.2165364e-16 -24.316561)
(320.46013 -8.333476e-18 -25.246109)
(320.81998 -7.0556693e-18 -25.841506)
(321.90958 1.8796422e-16 -25.082181)
(320.72476 -1.5672243e-16 -26.105274)
(321.10139 1.30492e-16 -24.932533)
(320.21104 -9.5017168e-17 -26.116926)
(320.09738 2.260297e-17 -24.989542)
(319.25583 0 -25.962099)
(318.71907 0 -25.12313)
(317.74076 -2.6166799e-17 -25.743213)
(316.76899 8.6619619e-17 -25.216148)
(315.47995 0 -25.510504)
(314.00679 3.0152817e-17 -25.19027)
(312.22741 2.4991043e-17 -25.237482)
(310.13879 1.2333223e-16 -24.978307)
(307.69827 3.3887899e-17 -24.815711)
(304.87361 2.8288882e-17 -24.461893)
(301.66103 -2.3039326e-17 -24.036184)
(298.06358 1.5225954e-16 -23.403692)
(294.14144 1.2474688e-16 -22.564623)
(289.99619 2.3008953e-16 -21.446297)
(285.78939 -2.0536634e-17 -20.040195)
(281.69858 -2.679653e-16 -18.352079)
(277.88612 8.5763401e-16 -16.444416)
(274.47179 1.0896811e-18 -14.404707)
(271.53793 0 -12.338886)
(269.10498 4.2150123e-16 -10.354301)
(267.13378 -2.1599835e-17 -8.5322098)
(265.55495 1.5632926e-17 -6.9120022)
(264.34525 0 -5.5074675)
(263.59339 -5.7730625e-16 -4.3198287)
(263.21382 8.6564201e-16 -3.3100519)
(263.02712 1.9325726e-15 -2.3613052)
(263.45945 -2.9729206e-17 -1.4152467)
(263.83702 4.3632728e-17 -0.63545174)
(263.82705 -1.6032531e-17 -0.31352055)
(262.53458 -7.5043182e-16 -0.45218287)
(261.52005 -1.0946788e-15 -0.69760068)
(261.07372 -8.2240128e-16 -0.66263966)
(260.95328 1.8135381e-17 -0.48971614)
(261.0561 -8.3317885e-16 -0.27730519)
(261.19183 -9.6771115e-18 -0.098569494)
(261.25993 -4.5537586e-16 -0.0028389386)
(261.28852 0 0.041042719)
(261.298 5.0724229e-16 0.059124188)
(210.78191 7.5154032e-16 -17.541895)
(247.34449 4.2612182e-18 -20.132265)
(271.15408 4.1283205e-21 -22.266748)
(291.30401 3.7758903e-16 -23.98165)
(308.86901 5.2469827e-18 -25.788878)
(320.60446 -2.7973064e-16 -26.663124)
(320.41326 7.1703469e-18 -27.278839)
(321.52058 1.7917919e-16 -26.449462)
(320.30021 -1.5936135e-16 -27.557949)
(320.68068 0 -26.309893)
(319.75931 -1.2447902e-16 -27.562602)
(319.63442 9.1869173e-17 -26.386076)
(318.76269 -1.9172609e-17 -27.395311)
(318.19938 9.5762255e-17 -26.535338)
(317.18778 -7.9448928e-17 -27.166464)
(316.17585 -4.4212185e-17 -26.635882)
(314.84202 7.3322185e-17 -26.926933)
(313.31338 -6.0614548e-17 -26.606891)
(311.47164 -2.2746844e-16 -26.64285)
(309.30992 -4.1933059e-17 -26.375283)
(306.78832 1.0395615e-16 -26.189763)
(303.87536 -3.3179763e-19 -25.80715)
(300.57176 -1.6556468e-16 -25.33417)
(296.88774 0 -24.637649)
(292.89399 0 -23.71087)
(288.70545 -2.0676425e-16 -22.482739)
(284.49568 0 -20.947515)
(280.44842 5.4266455e-16 -19.120307)
(276.72362 -4.6116119e-16 -17.074073)
(273.43326 2.2615592e-17 -14.905565)
(270.64885 -3.4150226e-17 -12.727407)
(268.37297 -3.9847346e-16 -10.651209)
(266.54118 6.7892511e-16 -8.7575768)
(265.07942 -1.5764325e-17 -7.0785187)
(264.02613 -7.7007586e-16 -5.6248244)
(263.41122 -5.8092247e-16 -4.3943682)
(263.11205 -8.6953861e-16 -3.3569001)
(263.01667 -1.4360152e-19 -2.3756096)
(263.56126 -2.9804862e-17 -1.4154392)
(263.86371 -7.011904e-16 -0.64184368)
(263.78905 1.6037361e-17 -0.37450174)
(262.37289 7.7305429e-16 -0.53094088)
(261.424 1.0587963e-15 -0.74658593)
(261.01825 8.0690169e-16 -0.68299624)
(260.9132 -1.1550588e-15 -0.49018794)
(261.05149 0 -0.27154056)
(261.19009 0 -0.09375901)
(261.259 0 -0.00065258414)
(261.28801 -6.6426896e-16 0.041872784)
(261.29786 -4.9225324e-16 0.059405491)
(211.00282 -7.6544524e-16 -18.537554)
(247.7939 -1.5483746e-19 -21.293648)
(271.76312 4.49347e-16 -23.565017)
(292.00148 3.7900734e-16 -25.361986)
(309.52594 -6.6203031e-16 -27.299712)
(320.59921 2.8455505e-16 -28.098119)
(319.91207 2.2636624e-16 -28.739286)
(321.03915 -1.8197187e-16 -27.831057)
(319.78265 -1.4198755e-16 -29.026596)
(320.16683 1.178305e-16 -27.700055)
(319.21466 8.4401826e-17 -29.019049)
(319.07757 -7.0001991e-17 -27.793521)
(318.1772 9.7486336e-17 -28.836775)
(317.58649 -6.4634856e-17 -27.95761)
(316.54076 0 -28.597219)
(315.48659 4.4959062e-17 -28.064616)
(314.10546 -3.7168787e-17 -28.350306)
(312.51822 6.1997995e-17 -28.030213)
(310.61059 -3.1027096e-19 -28.05266)
(308.37209 4.2744389e-17 -27.774732)
(305.76567 -1.7561308e-16 -27.562894)
(302.76128 -1.165576e-16 -27.147015)
(299.36479 1.9132901e-16 -26.62089)
(295.59459 -1.9825179e-17 -25.853018)
(291.53299 1.5999728e-17 -24.830135)
(287.30919 -1.8447903e-16 -23.483614)
(283.10848 -4.2638047e-17 -21.812045)
(279.11937 -2.5755901e-16 -19.841178)
(275.49803 -4.4141916e-16 -17.654976)
(272.34799 -3.4917522e-16 -15.359284)
(269.72754 0 -13.07321)
(267.61538 8.6054389e-16 -10.912004)
(265.92112 2.0814864e-17 -8.9527924)
(264.59882 1.600331e-17 -7.219729)
(263.71486 1.5254688e-15 -5.7214584)
(263.22823 5.6556772e-16 -4.4552035)
(262.98883 -1.3638839e-17 -3.3899444)
(263.03745 6.4826789e-16 -2.3826912)
(263.64864 9.7124613e-16 -1.4144397)
(263.8859 -2.1933691e-17 -0.65355651)
(263.70028 1.6035003e-17 -0.43638133)
(262.20957 -1.5221608e-15 -0.61050015)
(261.32703 -1.0559629e-15 -0.78950761)
(260.96416 -1.2355663e-17 -0.70024191)
(260.87389 2.2970763e-15 -0.48848934)
(261.04736 0 -0.26432892)
(261.18872 1.8959809e-17 -0.088757494)
(261.25834 -2.7730736e-17 0.0016039621)
(261.28762 6.6331129e-16 0.042733763)
(261.29772 4.8155223e-16 0.059703463)
(211.16892 -1.5616856e-15 -19.540407)
(248.19138 4.263961e-18 -22.462001)
(272.32437 4.6166044e-16 -24.875339)
(292.65052 6.127406e-18 -26.754599)
(310.08526 -3.3450761e-16 -28.826264)
(320.43884 -2.4711327e-19 -29.530938)
(319.3299 2.2999209e-16 -30.208697)
(320.47772 -1.235428e-17 -29.215821)
(319.18489 -2.058929e-17 -30.503467)
(319.57252 1.5431549e-16 -29.098293)
(318.58959 2.8791335e-17 -30.483331)
(318.43939 -2.1393708e-16 -29.210396)
(317.5095 7.9094978e-17 -30.285526)
(316.88938 -3.2918706e-17 -29.389509)
(315.80768 0 -30.035149)
(314.70834 -4.5715616e-17 -29.502011)
(313.2768 1.5171219e-16 -29.780211)
(311.62729 -9.4204886e-17 -29.459895)
(309.64973 1.3047251e-16 -29.466435)
(307.3304 1.0862933e-16 -29.175541)
(304.63522 -1.7906519e-16 -28.933406)
(301.53627 2.3651149e-16 -28.479149)
(298.04509 2.4513589e-17 -27.893337)
(294.18948 1.4065629e-16 -27.046059)
(290.06453 0 -25.918051)
(285.81446 -1.8845315e-16 -24.444228)
(281.63566 -3.4708634e-16 -22.629208)
(277.7199 -1.7314472e-17 -20.510589)
(274.21844 4.1743564e-16 -18.183695)
(271.22526 2.2002549e-17 -15.763323)
(268.7808 -5.5763412e-16 -13.37486)
(266.83371 -1.7359894e-15 -11.135844)
(265.27862 -2.0990394e-17 -9.116037)
(264.12534 -1.043896e-15 -7.3349187)
(263.41351 -1.5105868e-15 -5.7978951)
(263.04428 1.1740954e-15 -4.5036361)
(262.85977 -1.3700688e-17 -3.4092907)
(263.09955 -1.3009091e-15 -2.3829204)
(263.713 -9.2835958e-16 -1.4127868)
(263.89848 -1.0478268e-20 -0.67282613)
(263.52109 -4.8171419e-17 -0.49440246)
(262.03956 1.5426422e-15 -0.68743424)
(261.22523 -1.1045146e-15 -0.82697843)
(260.9121 -1.5766241e-15 -0.71533624)
(260.83984 -1.7690623e-17 -0.48502143)
(261.04411 1.2932574e-17 -0.25571881)
(261.18784 -1.201221e-15 -0.083581637)
(261.25799 1.3680299e-17 0.0039172943)
(261.2874 -1.0034359e-17 0.043614049)
(261.29758 0 0.060012646)
(211.28434 -7.9036288e-16 -20.562761)
(248.54472 5.725906e-16 -23.656553)
(272.84729 4.7077677e-16 -26.216636)
(293.26597 6.4772763e-18 -28.180538)
(310.54576 -3.402548e-16 -30.381148)
(320.13542 -2.8586043e-16 -30.969364)
(318.6789 2.5653604e-16 -31.696725)
(319.8472 1.2532207e-17 -30.61029)
(318.51755 0 -31.990837)
(318.90765 1.3946967e-16 -30.505636)
(317.89317 -1.1605226e-16 -31.955368)
(317.72773 0 -30.637138)
(316.76686 0 -31.741964)
(316.11437 0 -30.831791)
(314.9941 0 -31.480926)
(313.84606 4.6434543e-17 -30.948711)
(312.36053 -3.8290938e-17 -31.21702)
(310.64486 6.4335775e-17 -30.895639)
(308.59329 7.9936726e-17 -30.883388)
(306.18908 -1.7594102e-16 -30.576521)
(303.4012 -6.2316534e-19 -30.299666)
(300.20457 1.2103445e-16 -29.801289)
(296.6172 0 -29.148558)
(292.67751 -1.623003e-16 -28.213088)
(288.49467 2.3355911e-16 -26.970337)
(284.22835 4.5982336e-16 -25.360057)
(280.08523 -1.7929597e-18 -23.394695)
(276.2588 0 -21.124786)
(272.89447 0 -18.657266)
(270.07403 0 -16.115794)
(267.81332 1.1255614e-15 -13.631526)
(266.02863 -2.9639834e-17 -11.32168)
(264.62723 7.1909838e-16 -9.2465767)
(263.66643 -1.7485568e-17 -7.4234858)
(263.12229 2.3906545e-17 -5.8549452)
(262.85979 -2.3770915e-15 -4.5400377)
(262.75037 -8.5265856e-16 -3.417327)
(263.15457 -2.0395395e-17 -2.3764127)
(263.75956 -9.5927553e-16 -1.4102747)
(263.91189 2.1976116e-17 -0.70175585)
(263.30908 1.0100575e-15 -0.55004026)
(261.8602 0 -0.75669065)
(261.11498 1.0838631e-15 -0.85657076)
(260.8561 1.5447163e-15 -0.72729836)
(260.81293 -1.1347019e-15 -0.48052426)
(261.04192 1.282791e-17 -0.24589341)
(261.18751 1.1703307e-20 -0.078259768)
(261.25795 -8.5048109e-16 0.0062709984)
(261.28728 -1.8465661e-21 0.04450577)
(261.29745 -9.2942592e-16 0.060329735)
(211.36791 0 -21.593893)
(248.86735 -4.598305e-18 -24.857911)
(273.34552 -4.7229789e-16 -27.570254)
(293.86197 3.9508464e-16 -29.625762)
(310.90238 0 -31.946227)
(319.70445 9.0927019e-18 -32.397999)
(317.96808 2.4577365e-16 -33.193204)
(319.15552 -2.0386871e-16 -32.010229)
(317.78748 2.1318342e-17 -33.4873)
(318.17814 0 -31.922731)
(317.13037 0 -33.437176)
(316.94683 0 -32.075873)
(315.95287 4.0982144e-17 -33.207923)
(315.26462 3.4108461e-17 -32.286055)
(314.10298 -5.6808786e-17 -32.935611)
(312.9027 -6.2968868e-20 -32.405178)
(311.35968 3.9291545e-17 -32.660723)
(309.57404 -2.6031019e-16 -32.337066)
(307.4443 2.72879e-17 -32.302851)
(304.95109 8.9233403e-17 -31.976465)
(302.06659 3.6512503e-17 -31.659949)
(298.76929 -2.740984e-16 -31.111039)
(295.0846 2.5326679e-17 -30.383427)
(291.06296 -2.0500735e-17 -29.350235)
(286.82884 -2.698238e-16 -27.982599)
(282.55757 0 -26.226598)
(278.46507 -2.4316706e-17 -24.104359)
(274.74514 1.7805943e-17 -21.680304)
(271.53587 0 -19.073218)
(268.90195 0 -16.415468)
(266.82753 -5.6777251e-16 -13.842772)
(265.20374 1.768699e-15 -11.468049)
(263.98429 -6.5962235e-16 -9.3446349)
(263.22607 1.0569247e-15 -7.4857646)
(262.83811 -5.8357197e-19 -5.893104)
(262.67279 1.1656617e-15 -4.563003)
(262.67539 9.1043356e-16 -3.4155578)
(263.21326 -2.0441398e-17 -2.3633229)
(263.79108 9.6051318e-16 -1.4073652)
(263.90375 0 -0.73903719)
(263.07514 -1.0244896e-15 -0.60698795)
(261.67595 1.4916442e-15 -0.8156654)
(261.00017 -1.6891248e-17 -0.87714969)
(260.79591 -1.5254793e-15 -0.73424095)
(260.79378 -1.1450334e-15 -0.47513075)
(261.04071 -1.6144013e-15 -0.23524504)
(261.18774 1.1667725e-15 -0.072820772)
(261.25817 8.5237567e-16 0.0086480578)
(261.28724 -9.6970493e-18 0.0454004)
(261.29731 9.1680074e-16 0.060652022)
(211.42495 -1.2279682e-19 -22.644682)
(249.16138 1.1975749e-15 -26.083828)
(273.81808 -4.963979e-16 -28.955241)
(294.44533 6.486226e-18 -31.108076)
(311.14591 0 -33.537571)
(319.15061 -9.2264125e-18 -33.836303)
(317.1985 1.5628023e-17 -34.709642)
(318.403 2.0747203e-16 -33.424888)
(316.99513 3.5300647e-19 -34.999172)
(317.3843 -2.8789162e-16 -33.3545)
(316.3018 1.1987405e-16 -34.931481)
(316.09734 1.5003287e-16 -33.528999)
(315.06847 -1.2458521e-16 -34.684723)
(314.34135 -3.4563811e-17 -33.753311)
(313.13589 4.3379776e-20 -34.399602)
(311.88013 -1.437433e-16 -33.87149)
(310.27628 7.9769398e-17 -34.111106)
(308.41694 1.3197684e-16 -33.783579)
(306.20496 -2.1939345e-16 -33.72393)
(303.61872 -4.5672566e-17 -33.374047)
(300.63374 1.4957745e-16 -33.012456)
(297.233 -2.1818294e-16 -32.405938)
(293.45038 0 -31.594708)
(289.34987 0 -30.453507)
(285.07242 3.4582929e-17 -28.950372)
(280.80895 -4.7640127e-16 -27.039408)
(276.78339 2.0779549e-17 -24.754228)
(273.18855 -5.8290175e-16 -22.174044)
(270.15217 -4.3495062e-17 -19.429696)
(267.71453 7.5721225e-16 -16.661703)
(265.82479 0 -14.008129)
(264.37115 -1.8123344e-15 -11.574433)
(263.36283 6.873268e-16 -9.4104226)
(262.80522 1.0647814e-15 -7.5230108)
(262.5541 1.5849756e-15 -5.912355)
(262.4817 -1.8572968e-17 -4.571327)
(262.59944 -8.439275e-16 -3.4030194)
(263.26175 -2.0479017e-17 -2.3439408)
(263.80585 3.0019713e-17 -1.4033915)
(263.87345 -2.1966247e-17 -0.78448976)
(262.83654 -1.0243085e-15 -0.66734389)
(261.49669 -1.4872683e-15 -0.8746726)
(260.88355 -1.6828855e-17 -0.89294257)
(260.72409 -1.2665654e-17 -0.73408099)
(260.77965 1.1547321e-15 -0.46812509)
(261.04041 1.6004182e-15 -0.22405189)
(261.18854 0 -0.067295823)
(261.25864 0 0.011030768)
(261.28728 0 0.046289464)
(261.29718 8.9053541e-16 0.060976683)
(211.45653 0 -23.716721)
(249.42233 4.757125e-18 -27.333294)
(274.25867 0 -30.365098)
(295.01614 4.2333719e-16 -32.623082)
(311.2646 -3.4662259e-16 -35.147934)
(318.46458 -9.4078533e-18 -35.280006)
(316.36821 -1.584162e-17 -36.242951)
(317.58811 0 -34.851975)
(316.13936 1.5409499e-16 -36.524792)
(316.52521 -1.4611968e-16 -34.8007)
(315.40683 3.0533841e-17 -36.438535)
(315.17895 -5.0677214e-17 -34.997076)
(314.11388 0 -36.172474)
(313.34529 0 -35.233542)
(312.09394 5.8438998e-17 -35.872584)
(310.77969 9.7191531e-17 -35.347168)
(309.11173 -8.0757207e-17 -35.567592)
(307.17495 0 -35.23433)
(304.87655 1.3923248e-16 -35.145569)
(302.19316 -2.2964075e-17 -34.767723)
(299.10391 0 -34.355114)
(295.59727 2.5170104e-16 -33.683209)
(291.7168 1.8232361e-16 -32.778843)
(287.54171 -2.9971825e-16 -31.518624)
(283.2304 -5.2414515e-17 -29.869009)
(278.9892 9.0778911e-16 -27.794009)
(275.04873 4.1196059e-16 -25.340492)
(271.59882 5.6962662e-16 -22.603328)
(268.75149 0 -19.725472)
(266.51485 2.7592531e-18 -16.854235)
(264.80845 0 -14.126657)
(263.54979 1.7714624e-15 -11.64171)
(262.76968 -6.4789376e-16 -9.4446525)
(262.39829 -2.1244289e-15 -7.5362212)
(262.26799 -7.9591267e-16 -5.9133476)
(262.29005 0 -4.5640445)
(262.53309 8.5982803e-16 -3.3793638)
(263.29749 -1.2894457e-15 -2.319018)
(263.80052 0 -1.3969248)
(263.83261 -1.4041703e-15 -0.83810795)
(262.5993 1.0220012e-15 -0.73161686)
(261.3276 0 -0.92754932)
(260.77078 0 -0.90687285)
(260.64215 1.5452131e-15 -0.72668364)
(260.77149 1.094471e-15 -0.45847579)
(261.04117 1.249816e-17 -0.21248309)
(261.18991 0 -0.061715446)
(261.25931 -1.2956721e-17 0.013401777)
(261.28741 1.6498564e-21 0.047164823)
(261.29709 -8.6511875e-16 0.061299134)
(211.45686 -8.5078294e-16 -24.802851)
(249.64657 6.2048266e-16 -28.597553)
(274.66279 5.0712186e-16 -31.795751)
(295.577 -4.3063338e-16 -34.167427)
(311.24862 -2.2741525e-17 -36.767166)
(317.64304 2.8676879e-17 -36.727194)
(315.47663 -2.5806064e-16 -37.794394)
(316.70997 2.1388163e-16 -36.294093)
(315.21898 0 -38.066402)
(315.59988 0 -36.262757)
(314.44508 -3.092888e-17 -37.958631)
(314.19187 0 -36.479909)
(313.08987 0 -37.670402)
(312.27742 0 -36.725993)
(310.97817 -5.9641795e-17 -37.353872)
(309.60233 9.8928104e-17 -36.831523)
(307.86683 -4.0965216e-17 -37.02961)
(305.84878 -1.7116389e-16 -36.68845)
(303.45972 -8.5387079e-17 -36.566642)
(300.67504 -4.7187244e-17 -36.155858)
(297.47783 -1.1717343e-16 -35.685712)
(293.86323 0 -34.939852)