/*--------------------------------*- C++ -*----------------------------------*\
  =========                 |
  \\      /  F ield         | OpenFOAM: The Open Source CFD Toolbox
   \\    /   O peration     | Website:  https://openfoam.org
    \\  /    A nd           | Version:  8
     \\/     M anipulation  |
\*---------------------------------------------------------------------------*/
FoamFile
{
    version     2.0;
    format      ascii;
    class       volVectorField;
    location    "0.0300106";
    object      wallShearStress;
}
// * * * * * * * * * * * * * * * * * * * * * * * * * * * * * * * * * * * * * //

dimensions      [1 -1 -2 0 0 0 0];

internalField   uniform (0 0 0);

boundaryField
{
    aerofoil
    {
        type            calculated;
        value           nonuniform List<vector> 
300
(
(-136.9795 2.0405938e-19 8.1732281)
(-136.87808 2.1474062e-16 8.6870276)
(-138.07063 3.9703057e-20 9.3213414)
(-139.03223 9.7099507e-36 9.9554842)
(-139.98041 -8.5001864e-20 10.610894)
(-140.80698 1.2477973e-21 11.272114)
(-141.63857 2.4226164e-16 11.959707)
(-142.43156 -2.006601e-18 12.653604)
(-143.1976 -5.0251831e-16 13.36709)
(-143.89207 -5.1335945e-16 14.087093)
(-144.5447 5.2450722e-16 14.826565)
(-145.13665 1.0742766e-15 15.573205)
(-145.69436 5.4545811e-16 16.337272)
(-146.21113 -1.2763364e-19 17.11008)
(-146.72155 8.3259215e-20 17.903799)
(-147.21616 1.2700857e-19 18.71685)
(-147.68557 5.9526424e-16 19.545181)
(-148.13385 6.0226612e-16 20.391767)
(-148.5529 6.2422398e-16 21.252802)
(-148.96127 -6.3191883e-16 22.134791)
(-149.3594 1.289326e-15 23.039163)
(-149.73275 3.3391333e-19 23.962006)
(-150.07737 5.5991168e-18 24.905102)
(-150.38996 -5.3301652e-18 25.866417)
(-150.67535 1.8532862e-21 26.853099)
(-150.90932 -1.2902729e-21 27.859967)
(-151.08351 -7.2397092e-16 28.881891)
(-151.22653 2.8309274e-21 29.938844)
(-151.30812 -3.619271e-21 31.015703)
(-151.37003 3.9551773e-16 32.13172)
(-151.40317 3.785814e-16 33.273672)
(-151.447 -2.6481537e-34 34.464954)
(-151.49019 4.1872387e-16 35.700565)
(-151.52893 4.1413544e-16 36.983305)
(-151.5952 -4.3517869e-16 38.327552)
(-151.68181 4.3087647e-16 39.736894)
(-151.7521 -7.7037198e-34 41.207933)
(-151.79398 -4.4677401e-16 42.739102)
(-151.77921 1.3790084e-17 44.328671)
(-151.68522 -1.3858659e-17 45.982352)
(-151.47737 -4.7366059e-16 47.697824)
(-151.18852 4.8177101e-16 49.493227)
(-150.79488 -3.0719507e-18 51.373563)
(-150.32362 -3.0225586e-20 53.359818)
(-149.76373 5.1051692e-16 55.434435)
(-149.17671 -5.1769068e-16 57.619861)
(-148.39851 -5.5224005e-16 59.875324)
(-147.39664 1.447e-17 62.210536)
(-146.10039 -5.3610515e-16 64.61234)
(-144.44457 5.5903276e-16 67.06533)
(-142.39019 5.338392e-16 69.593785)
(-139.91136 1.6166994e-17 72.225137)
(-136.97749 5.9301171e-16 74.985399)
(-133.5908 -5.8520641e-16 77.907023)
(-129.74361 -6.4296007e-18 80.97071)
(-125.4688 1.2588685e-15 84.046492)
(-121.03703 2.7529559e-19 87.172449)
(-116.85829 -2.7785357e-17 90.204751)
(-112.68883 -6.3619948e-16 93.057803)
(-108.28187 -6.9448602e-16 95.580886)
(-103.24258 -6.4753651e-16 97.573498)
(-97.340702 -4.0760669e-17 98.807609)
(-90.500207 2.1488972e-17 99.015868)
(-82.594806 7.0912338e-16 97.96398)
(-73.646214 -1.1133843e-19 95.41037)
(-63.725904 0 90.973426)
(-53.08325 -7.200836e-16 84.338705)
(-42.119219 -7.1991308e-16 75.167366)
(-31.27726 -1.2065858e-17 63.273339)
(-20.724687 1.0113161e-17 48.70924)
(-11.208399 -5.0970607e-18 31.888026)
(-5.3780979 -2.7119613e-16 15.066004)
(-2.1093424 -1.1319741e-16 4.5702379)
(-0.80303374 3.0908738e-17 -0.45039022)
(-1.6316437 7.7889418e-18 -7.5843493)
(-55.085697 2.9527235e-20 -7.2829395)
(-83.320053 4.1142302e-37 -7.0703392)
(-86.633857 0 -7.3361383)
(-90.140183 -7.289267e-21 -7.4889566)
(-92.636999 8.9730811e-16 -7.539456)
(-94.800693 -5.9992383e-19 -7.5605693)
(-96.572057 8.9522996e-16 -7.5471986)
(-98.10194 8.939288e-16 -7.5128992)
(-99.412726 1.1239419e-21 -7.459537)
(-100.55518 -8.8982099e-16 -7.393581)
(-101.56002 4.4385843e-16 -7.316911)
(-102.45062 4.5729349e-19 -7.231202)
(-103.24348 2.6511917e-25 -7.1393484)
(-103.95577 6.5913803e-19 -7.0425927)
(-104.59678 -1.7543667e-25 -6.9399808)
(-105.17335 4.386238e-16 -6.8334855)
(-105.69905 -2.0288265e-19 -6.7236085)
(-106.17971 -1.9992052e-19 -6.6093694)
(-106.61864 -2.0188164e-19 -6.4931921)
(-107.0231 2.0692053e-19 -6.3741348)
(-107.39467 5.1417034e-33 -6.25369)
(-107.73836 1.644081e-21 -6.1304291)
(-108.05595 -1.6450096e-21 -6.0063469)
(-108.35489 2.573342e-19 -5.8794769)
(-108.63419 4.2815666e-16 -5.751944)
(-108.89856 -4.2725108e-16 -5.6218628)
(-109.14792 2.0399594e-25 -5.4914399)
(-109.39149 4.2503832e-16 -5.3582313)
(-109.63016 4.2394625e-16 -5.2243388)
(-109.86856 3.2210439e-21 -5.0881773)
(-110.0999 8.4378372e-16 -4.9501747)
(-110.32864 4.2071123e-16 -4.8122842)
(-110.5611 -4.1964563e-16 -4.6707133)
(-110.78989 -4.7054203e-19 -4.5269795)
(-111.01959 -2.3779079e-19 -4.3809668)
(-111.25115 -4.164987e-16 -4.2330954)
(-111.48699 -5.4608096e-21 -4.0822401)
(-111.72395 -5.7180802e-21 -3.9286973)
(-111.9639 -2.1862759e-25 -3.7713284)
(-112.20747 -4.6438081e-19 -3.6114406)
(-112.45915 -1.2836021e-19 -3.4475914)
(-112.71532 1.2940876e-19 -3.2799774)
(-112.97943 2.3170031e-19 -3.1080425)
(-113.25497 -2.0428756e-16 -2.9327066)
(-113.55041 4.0728211e-16 -2.7518879)
(-113.86431 -2.0323013e-16 -2.5670747)
(-114.19922 2.317483e-19 -2.3769287)
(-114.54823 1.3714914e-19 -2.1809278)
(-114.912 -2.0190319e-16 -1.9788949)
(-115.29349 2.0184009e-16 -1.7717084)
(-115.69853 -2.0133668e-16 -1.5570384)
(-116.11964 -8.948683e-20 -1.334397)
(-116.55498 2.3355619e-19 -1.1051904)
(-117.00694 -1.3959823e-19 -0.86778046)
(-117.47633 -6.0815892e-21 -0.62067475)
(-117.96547 -2.2300658e-19 -0.3649975)
(-118.48162 -1.214814e-20 -0.10045531)
(-119.02074 -9.9395928e-17 0.17019474)
(-119.58142 9.9066861e-17 0.44634367)
(-120.15851 4.9619896e-17 0.73407326)
(-120.75179 4.9835021e-17 1.0628916)
(-121.35617 -2.4757031e-17 1.4043186)
(-121.97261 -3.1721723e-20 1.7557371)
(-122.59648 1.2253652e-17 2.1283074)
(-123.24193 2.4571833e-17 2.5224032)
(-123.92436 1.1673927e-19 2.8911894)
(-124.67996 4.9244127e-17 3.2893596)
(-125.52803 9.8263935e-17 3.7115658)
(-126.49835 9.8056513e-17 4.159945)
(-127.58753 9.7921889e-17 4.6334786)
(-128.79321 3.0092655e-36 5.1363034)
(-130.06563 -4.7652477e-20 5.6658105)
(-131.37748 -4.5825004e-20 6.2255488)
(-132.71165 -1.9526012e-16 6.8205455)
(-135.41338 1.9445485e-16 7.5234985)
(-154.8156 -1.7040901e-16 8.05889)
(-157.99392 1.6039679e-22 7.6029285)
(-159.55498 7.2519691e-19 7.0284365)
(-161.10013 -7.1647287e-19 6.4311528)
(-162.51069 -9.3282002e-17 5.8116481)
(-163.83326 -9.695879e-17 5.1774109)
(-165.08786 1.4457089e-18 4.528491)
(-166.30099 4.7341563e-17 3.7797727)
(-167.49967 1.6102136e-18 2.9942697)
(-168.68133 6.5995682e-18 2.2059078)
(-169.83569 -6.9405798e-18 1.3787456)
(-170.97159 -2.7508618e-17 0.52731816)
(-172.11333 2.8479297e-17 -0.24528889)
(-173.22068 -5.7887137e-17 -1.0626832)
(-174.31368 5.918144e-17 -1.9142718)
(-175.3857 2.0229013e-19 -2.79653)
(-176.42614 -2.9920982e-21 -3.7056548)
(-177.44686 -1.2585692e-16 -4.6431079)
(-178.43783 1.2827428e-16 -5.6073311)
(-179.41268 -3.3703774e-34 -6.6021059)
(-180.36096 5.0515497e-21 -7.6275111)
(-181.27192 -1.3241556e-16 -8.6836229)
(-182.15433 4.0123372e-20 -9.7770599)
(-182.98933 -8.8928849e-18 -10.905425)
(-183.79331 4.5305562e-18 -12.07428)
(-184.53689 1.5728817e-16 -13.275848)
(-185.24248 -9.4104627e-18 -14.51624)
(-185.92482 9.6668678e-18 -15.801783)
(-186.5922 2.9456449e-16 -17.133314)
(-187.26857 3.4047183e-16 -18.517236)
(-187.95723 -3.4702905e-16 -19.957845)
(-188.65991 1.0571858e-17 -21.458717)
(-189.38015 -3.8518599e-34 -23.023389)
(-190.14031 3.3531482e-16 -24.660246)
(-190.96611 -3.5306913e-16 -26.379473)
(-191.81189 3.8124324e-16 -28.182866)
(-192.66827 3.4379329e-16 -30.073534)
(-193.53041 1.1317301e-17 -32.066109)
(-194.40413 1.654417e-18 -34.184903)
(-195.26728 7.6114708e-16 -36.432333)
(-196.07607 1.4428739e-17 -38.809079)
(-196.83097 -6.4147672e-20 -41.320128)
(-197.51752 1.7378556e-17 -43.967667)
(-198.21264 -1.2908152e-17 -46.785092)
(-198.83659 1.3259859e-17 -49.743268)
(-199.43153 -1.3457463e-17 -52.8558)
(-199.85875 3.9157537e-18 -56.113661)
(-200.07039 7.4759937e-19 -59.526159)
(-199.98893 4.0267199e-18 -63.097309)
(-199.51045 -1.4558141e-17 -66.815985)
(-198.53908 -4.5710272e-16 -70.690055)
(-196.97486 1.5211001e-17 -74.741064)
(-194.75401 -2.2219264e-17 -78.980691)
(-191.81773 -1.4052308e-17 -83.440595)
(-188.13578 -4.9406724e-16 -88.157495)
(-183.64294 5.0924463e-16 -93.142553)
(-178.33021 -5.1709869e-16 -98.465347)
(-172.27474 1.0331906e-17 -104.17255)
(-165.6032 -5.3406927e-16 -110.23155)
(-158.91542 5.4792036e-16 -116.50015)
(-152.93216 1.1184105e-15 -122.78071)
(-147.22603 -1.1555916e-15 -129.01139)
(-141.1717 1.8383175e-17 -134.90529)
(-134.02786 5.5534188e-16 -139.98698)
(-125.3402 -5.9664378e-16 -143.59257)
(-114.99373 2.0587391e-17 -145.58535)
(-103.0453 6.391449e-16 -145.44597)
(-89.212887 3.0814879e-33 -142.20673)
(-74.010144 3.1954121e-16 -135.51905)
(-57.992556 3.4502785e-16 -124.51495)
(-42.084524 -1.540744e-33 -108.91365)
(-27.368294 -2.8911896e-18 -89.074618)
(-15.401847 5.055526e-16 -66.297976)
(-7.8504582 -1.603855e-16 -42.177925)
(-3.4888829 -7.5517068e-17 -20.584756)
(-2.5421765 6.6701972e-21 0.74432478)
(-6.0299728 7.344795e-16 1.1956718)
(-7.609914 -7.8691386e-16 1.5231451)
(-9.7171523 1.6159833e-21 1.9280323)
(-11.701038 -8.9851298e-16 2.3019875)
(-13.761031 -4.7167057e-16 2.6839317)
(-15.797814 9.8211434e-16 3.0542827)
(-17.833563 5.0858788e-16 3.417874)
(-19.84035 9.3504459e-21 3.7689601)
(-21.800224 6.8433233e-20 4.1018961)
(-23.612643 4.347877e-21 4.4087263)
(-25.472534 -5.7279113e-16 4.7216665)
(-27.283645 -2.2311943e-21 5.015708)
(-29.049658 -5.9281666e-16 5.2967475)
(-30.780794 -1.2033375e-15 5.5665482)
(-32.486176 -2.3292106e-21 5.829204)
(-34.187735 1.2276685e-15 6.0910854)
(-35.916053 0 6.3432883)
(-37.496662 -1.1380186e-25 6.5614737)
(-39.030379 1.3505808e-19 6.7743268)
(-40.521931 6.2756282e-16 6.9768255)
(-41.974508 -6.7580513e-21 7.1684938)
(-43.392756 -1.2118861e-21 7.3506938)
(-44.784606 -2.579744e-20 7.5233063)
(-46.142249 -6.4662875e-16 7.6826201)
(-47.379065 -1.3147872e-15 7.8221935)
(-48.605657 -6.653638e-16 7.9707541)
(-50.009348 6.3511506e-22 8.1437156)
(-51.421333 -6.5853593e-16 8.2980399)
(-52.695725 -1.555784e-19 8.4217242)
(-53.935269 6.6379083e-16 8.5441288)
(-55.151991 -4.4209317e-21 8.6608188)
(-56.35166 6.6842201e-16 8.7699338)
(-57.53426 -1.7092842e-19 8.8723668)
(-58.710054 -1.9903514e-19 8.9693745)
(-59.881552 -1.7896806e-19 9.0616657)
(-61.045351 -6.7643212e-16 9.148224)
(-62.196024 1.827092e-25 9.2282654)
(-63.333504 -6.4705593e-22 9.3010933)
(-64.453752 1.3622114e-15 9.3669496)
(-65.552795 -1.0863494e-19 9.4245364)
(-66.623447 1.1159062e-19 9.472996)
(-67.669405 6.8497262e-16 9.5126474)
(-68.70257 -1.9941042e-25 9.5452346)
(-69.732658 -2.1869807e-19 9.5708378)
(-70.754713 1.1507308e-19 9.5896226)
(-71.764269 -6.8804591e-16 9.5999952)
(-72.744576 6.8883204e-16 9.5996548)
(-73.669733 -6.8898459e-16 9.5857025)
(-74.511111 1.1519318e-19 9.5553665)
(-75.239408 -1.2423467e-19 9.5048417)
(-75.835704 1.0502371e-20 9.43344)
(-76.331545 -1.214968e-20 9.3460981)
(-76.82634 6.8667175e-16 9.2518447)
(-77.451215 -1.1763681e-19 9.1628351)
(-78.309037 5.2408316e-21 9.0872372)
(-79.36216 -6.8427962e-16 9.0179353)
(-80.267736 -1.0447761e-20 8.9244969)
(-80.340184 1.3669645e-15 8.7466295)
(-79.110822 -6.8037042e-16 8.433118)
(-76.615425 -6.7385932e-16 7.9952491)
(-72.615707 -5.0734288e-21 7.4441465)
(-67.132055 6.4881359e-16 6.7782697)
(-61.162388 3.1516742e-16 6.064667)
(-55.591121 -3.0484427e-16 5.4181404)
(-52.409567 2.9612248e-16 4.9396959)
(-55.717374 -8.6975605e-21 4.9496574)
(-68.363319 3.0003345e-16 5.6190893)
(-88.600746 -6.1861262e-16 6.8125755)
(-110.47943 -6.4735181e-22 8.0938818)
(-128.45284 -6.2887168e-16 9.0367676)
(-140.59774 -6.1009938e-20 9.4616771)
(-147.79779 -4.3924334e-20 9.4601386)
(-152.07751 2.3714898e-20 9.165963)
(-153.16944 -1.5840028e-16 8.6027612)
)
;
    }
    inlet
    {
        type            calculated;
        value           uniform (0 0 0);
    }
    outlet
    {
        type            calculated;
        value           uniform (0 0 0);
    }
    back
    {
        type            empty;
    }
    front
    {
        type            empty;
    }
}


// ************************************************************************* //
