/*--------------------------------*- C++ -*----------------------------------*\
  =========                 |
  \\      /  F ield         | OpenFOAM: The Open Source CFD Toolbox
   \\    /   O peration     | Website:  https://openfoam.org
    \\  /    A nd           | Version:  8
     \\/     M anipulation  |
\*---------------------------------------------------------------------------*/
FoamFile
{
    version     2.0;
    format      ascii;
    class       volScalarField;
    location    "0.0300106";
    object      yPlus;
}
// * * * * * * * * * * * * * * * * * * * * * * * * * * * * * * * * * * * * * //

dimensions      [0 0 0 0 0 0 0];

internalField   uniform 0;

boundaryField
{
    aerofoil
    {
        type            calculated;
        value           nonuniform List<scalar> 
300
(
132.42475
131.76366
131.37631
130.9088
130.5202
130.09291
129.73709
129.3812
129.08032
128.77032
128.502
128.23478
127.99516
127.76107
127.56449
127.39476
127.24393
127.11758
127.00588
126.91722
126.85427
126.80696
126.77553
126.74994
126.74012
126.74148
126.72056
126.72873
126.72504
126.75506
126.77314
126.83315
126.91972
127.02746
127.1721
127.35531
127.56101
127.78289
128.00849
128.23982
128.44788
128.66094
128.85959
129.08218
129.2948
129.55812
129.78763
129.98047
130.11656
130.16834
130.1342
130.0308
129.8609
129.65491
129.44764
129.22467
129.1293
129.35298
129.77167
130.30593
130.74356
130.93959
130.78309
130.10623
128.74523
126.41627
122.7972
117.35244
109.31792
97.46425
80.053767
56.129278
31.671971
10.980006
39.576312
107.56037
114.97691
116.84497
118.8432
120.11983
121.22077
122.06638
122.77445
123.35321
123.83652
124.24192
124.58519
124.87446
125.12037
125.32995
125.505
125.65294
125.77884
125.88265
125.96967
126.03951
126.09685
126.13978
126.17509
126.19937
126.21778
126.22741
126.2355
126.23979
126.24519
126.24766
126.2467
126.24951
126.24932
126.25012
126.25062
126.25352
126.25607
126.26076
126.26524
126.27457
126.28454
126.29869
126.31654
126.34466
126.37919
126.4249
126.47699
126.53651
126.60179
126.67869
126.76299
126.85304
126.94909
127.05339
127.16395
127.28722
127.41862
127.56115
127.71149
127.87296
128.03873
128.21334
128.39028
128.57777
128.76853
128.991
129.24268
129.54852
129.89225
130.29815
130.73402
131.20009
131.68
132.29638
123.86844
123.83712
123.58835
123.41112
123.23516
123.07557
122.92958
122.80377
122.70551
122.6343
122.58668
122.55834
122.56514
122.58351
122.62422
122.68812
122.7656
122.86515
122.97606
123.10512
123.25062
123.40439
123.5757
123.7451
123.93381
124.1222
124.31681
124.52677
124.75417
125.00819
125.29128
125.60661
125.95338
126.33703
126.77183
127.24453
127.74792
128.27815
128.84729
129.45006
130.0756
130.71604
131.36324
132.07002
132.79032
133.56092
134.32377
135.07348
135.79633
136.45623
137.03359
137.52065
137.90952
138.20493
138.43734
138.61132
138.76201
139.00188
139.38452
140.1842
141.63965
143.68483
146.15187
148.73482
151.06015
153.04888
154.58304
154.97305
153.90989
150.48851
143.68672
132.4918
116.11941
93.445637
65.329862
18.771059
31.68074
35.548301
40.102053
43.911911
47.520291
50.808158
53.865886
56.694492
59.297412
61.583451
63.832676
65.928499
67.890384
69.744757
71.51001
73.219568
74.904559
76.386768
77.786435
79.112194
80.370715
81.568923
82.716578
83.806192
84.765262
85.703939
86.786542
87.849558
88.770599
89.649614
90.495113
91.313255
92.103146
92.873954
93.627384
94.362081
95.073939
95.763807
96.428698
97.067706
97.676017
98.255517
98.814392
99.36038
99.889435
100.39968
100.88189
101.32066
101.69903
102.0009
102.21336
102.35033
102.46572
102.63368
102.91375
103.29795
103.61861
103.52256
102.6674
101.0293
98.478475
94.79902
90.484721
86.182639
83.140852
84.515696
91.263532
100.67597
109.16312
115.24099
119.17655
121.447
122.85541
123.60244
)
;
    }
    inlet
    {
        type            calculated;
        value           uniform 0;
    }
    outlet
    {
        type            calculated;
        value           uniform 0;
    }
    back
    {
        type            empty;
    }
    front
    {
        type            empty;
    }
}


// ************************************************************************* //
