/*--------------------------------*- C++ -*----------------------------------*\
  =========                 |
  \\      /  F ield         | OpenFOAM: The Open Source CFD Toolbox
   \\    /   O peration     | Website:  https://openfoam.org
    \\  /    A nd           | Version:  8
     \\/     M anipulation  |
\*---------------------------------------------------------------------------*/
FoamFile
{
    version     2.0;
    format      ascii;
    class       volScalarField;
    location    "0.10999";
    object      alphat;
}
// * * * * * * * * * * * * * * * * * * * * * * * * * * * * * * * * * * * * * //

dimensions      [1 -1 -1 0 0 0 0];

internalField   nonuniform List<scalar> 
20000
(
0.00097514681
0.0024116664
0.0032283808
0.0035284962
0.0031937459
0.0018888103
0.00026825278
8.1893583e-09
2.2302901e-09
2.2238312e-09
2.1313492e-09
2.1563042e-09
2.1141923e-09
2.1484494e-09
2.1486514e-09
2.1915902e-09
2.2191339e-09
2.274562e-09
2.3286021e-09
2.4095338e-09
2.5027116e-09
2.6286732e-09
2.7826707e-09
2.9833946e-09
3.2328339e-09
3.5463029e-09
3.9251929e-09
4.3701299e-09
4.8635491e-09
5.3808759e-09
5.8903315e-09
6.3668273e-09
6.7927748e-09
7.1612232e-09
7.4686756e-09
7.7200093e-09
7.9195903e-09
8.0777475e-09
8.1994956e-09
8.2943975e-09
8.3679466e-09
8.4289453e-09
8.4752556e-09
8.5176411e-09
8.5652251e-09
8.6253021e-09
8.6588063e-09
8.666823e-09
8.6602209e-09
8.6734571e-09
0.00097571169
0.0023922841
0.0031729759
0.0034373412
0.0030662912
0.0016932648
0.00019236959
5.2414529e-09
2.2193289e-09
2.2170334e-09
2.1252125e-09
2.1519033e-09
2.1097588e-09
2.1445662e-09
2.1449576e-09
2.1886875e-09
2.2166303e-09
2.2723097e-09
2.327088e-09
2.4089846e-09
2.5035305e-09
2.6325921e-09
2.7905519e-09
2.9953133e-09
3.2491667e-09
3.5665574e-09
3.9489082e-09
4.3956961e-09
4.8896044e-09
5.4060077e-09
5.9138426e-09
6.3879187e-09
6.8108993e-09
7.1761993e-09
7.480768e-09
7.7294572e-09
7.9265961e-09
8.0828569e-09
8.2032907e-09
8.297413e-09
8.3706157e-09
8.4312831e-09
8.4770115e-09
8.5193983e-09
8.572406e-09
8.6280553e-09
8.6588432e-09
8.6683108e-09
8.6598939e-09
8.6737173e-09
0.00096946505
0.0023615318
0.0031136479
0.0033482503
0.002948079
0.0015152887
0.00012603855
3.8946462e-09
2.2145725e-09
2.214515e-09
2.1231762e-09
2.1502228e-09
2.1087212e-09
2.1439273e-09
2.1444217e-09
2.1886027e-09
2.2170334e-09
2.27463e-09
2.3320756e-09
2.4175026e-09
2.5159931e-09
2.6484006e-09
2.8100111e-09
3.0188226e-09
3.277181e-09
3.5990717e-09
3.9853378e-09
4.4343094e-09
4.9280683e-09
5.4419439e-09
5.945736e-09
6.4149924e-09
6.833214e-09
7.1939541e-09
7.4943629e-09
7.7394301e-09
7.9337253e-09
8.0878628e-09
8.2068211e-09
8.3001096e-09
8.3729224e-09
8.4331256e-09
8.478397e-09
8.5211189e-09
8.5799236e-09
8.6344903e-09
8.6607855e-09
8.6671401e-09
8.6606909e-09
8.6719128e-09
0.00096387166
0.0023329944
0.003056307
0.0032597985
0.0028305048
0.0013443236
7.1052812e-05
3.212303e-09
2.2131469e-09
2.213365e-09
2.121489e-09
2.1493847e-09
2.1103575e-09
2.1466803e-09
2.1483909e-09
2.1946765e-09
2.2251934e-09
2.2851376e-09
2.3449326e-09
2.4331493e-09
2.5349328e-09
2.6714854e-09
2.8380596e-09
3.0524937e-09
3.3171817e-09
3.6454393e-09
4.0372717e-09
4.4894605e-09
4.9832275e-09
5.4937742e-09
5.9919146e-09
6.4542365e-09
6.8652891e-09
7.2193724e-09
7.5139643e-09
7.7541063e-09
7.9443881e-09
8.0954928e-09
8.2122891e-09
8.3042674e-09
8.3764213e-09
8.4358602e-09
8.4803306e-09
8.5238866e-09
8.5880756e-09
8.6380029e-09
8.6618157e-09
8.6672336e-09
8.660728e-09
8.6707738e-09
0.00095887677
0.0023066017
0.003001819
0.0031724211
0.002713933
0.0011823
3.3006426e-05
2.856215e-09
2.2153604e-09
2.2169771e-09
2.123886e-09
2.1527243e-09
2.1173962e-09
2.1553255e-09
2.1581721e-09
2.2061975e-09
2.2383912e-09
2.300675e-09
2.3632019e-09
2.45481e-09
2.560624e-09
2.7018169e-09
2.8739066e-09
3.0947458e-09
3.3667467e-09
3.702517e-09
4.1009145e-09
4.5569303e-09
5.0505988e-09
5.5569428e-09
6.0478939e-09
6.5014796e-09
6.903651e-09
7.2495741e-09
7.5370554e-09
7.7712576e-09
7.9567981e-09
8.1043426e-09
8.2185817e-09
8.3089713e-09
8.3802558e-09
8.4388411e-09
8.4825023e-09
8.527729e-09
8.5956677e-09
8.6419483e-09
8.6630995e-09
8.6670613e-09
8.6608671e-09
8.6691682e-09
0.00095398269
0.0022819616
0.0029506455
0.0030875388
0.002596886
0.0010300891
1.2747644e-05
2.6690275e-09
2.2234907e-09
2.2231155e-09
2.132495e-09
2.1594674e-09
2.1281897e-09
2.1677435e-09
2.1718246e-09
2.2217691e-09
2.2559226e-09
2.3207119e-09
2.386044e-09
2.4811203e-09
2.5911904e-09
2.7376502e-09
2.9162085e-09
3.1446194e-09
3.4252934e-09
3.7699508e-09
4.1760565e-09
4.6365397e-09
5.1300899e-09
5.6315422e-09
6.1140487e-09
6.557316e-09
6.9489395e-09
7.2852078e-09
7.5643224e-09
7.7915668e-09
7.9715399e-09
8.1148954e-09
8.2261034e-09
8.314564e-09
8.3847562e-09
8.4423229e-09
8.4852147e-09
8.5333066e-09
8.6025444e-09
8.6451148e-09
8.6642777e-09
8.6674227e-09
8.6607968e-09
8.6674875e-09
0.00095016519
0.0022592718
0.0029023569
0.0030086684
0.0024767449
0.00088765269
4.324865e-06
2.5683541e-09
2.2323857e-09
2.2344637e-09
2.1444297e-09
2.1733435e-09
2.142632e-09
2.1834606e-09
2.1887551e-09
2.240554e-09
2.2766465e-09
2.3440376e-09
2.4124772e-09
2.5114666e-09
2.6263823e-09
2.7787489e-09
2.9645469e-09
3.2014905e-09
3.4919548e-09
3.8466164e-09
4.2612858e-09
4.7266205e-09
5.2198665e-09
5.7156936e-09
6.1886006e-09
6.6201907e-09
6.9999144e-09
7.3253037e-09
7.5949893e-09
7.8144081e-09
7.9881387e-09
8.1267955e-09
8.234589e-09
8.3208514e-09
8.389773e-09
8.4460751e-09
8.4884628e-09
8.5407164e-09
8.6085249e-09
8.6481038e-09
8.6654606e-09
8.6680291e-09
8.6602987e-09
8.6657026e-09
0.00094652492
0.002236812
0.0028544359
0.0029252743
0.0023519845
0.00075633921
1.3840931e-06
2.518397e-09
2.2435539e-09
2.24768e-09
2.1584441e-09
2.1886445e-09
2.1591281e-09
2.2015325e-09
2.2081774e-09
2.2619453e-09
2.3001902e-09
2.3704021e-09
2.4422232e-09
2.5454682e-09
2.6657053e-09
2.8246284e-09
3.0185256e-09
3.2650402e-09
3.5664459e-09
3.9321787e-09
4.3561349e-09
4.826531e-09
5.3191426e-09
5.8085816e-09
6.2708193e-09
6.689518e-09
7.0561367e-09
7.3695626e-09
7.6288786e-09
7.8396893e-09
8.0065492e-09
8.1400284e-09
8.2440481e-09
8.3278651e-09
8.3953134e-09
8.4500515e-09
8.4922606e-09
8.5492675e-09
8.6141949e-09
8.6508811e-09
8.6665372e-09
8.6684784e-09
8.6595878e-09
8.6639493e-09
0.00094328911
0.0022149666
0.002805693
0.002843565
0.0022219549
0.00063683682
4.434258e-07
2.4968353e-09
2.2568949e-09
2.2630706e-09
2.1746477e-09
2.2065362e-09
2.1779025e-09
2.2218193e-09
2.2298942e-09
2.2857069e-09
2.3262534e-09
2.3995024e-09
2.47505e-09
2.5829805e-09
2.7090998e-09
2.8752477e-09
3.0780702e-09
3.3351398e-09
3.6485408e-09
4.026243e-09
4.4599748e-09
4.9353922e-09
5.4268421e-09
5.9090357e-09
6.3595712e-09
6.7643007e-09
7.1168006e-09
7.4173644e-09
7.6655216e-09
7.8670598e-09
8.0265194e-09
8.1544178e-09
8.2543619e-09
8.3355193e-09
8.4012906e-09
8.4541715e-09
8.4965056e-09
8.5583582e-09
8.6198901e-09
8.6537356e-09
8.6675619e-09
8.6687352e-09
8.6587745e-09
8.662262e-09
0.0009400212
0.00219392
0.0027578462
0.0027613981
0.0020857637
0.00053212171
1.4924337e-07
2.491539e-09
2.2720358e-09
2.2800871e-09
2.192655e-09
2.2259561e-09
2.1984579e-09
2.2440017e-09
2.2536763e-09
2.3116696e-09
2.3547567e-09
2.4313037e-09
2.5109243e-09
2.6239522e-09
2.7564976e-09
2.9305488e-09
3.1431619e-09
3.4117935e-09
3.7382137e-09
4.1286595e-09
4.5724545e-09
5.0526141e-09
5.5421865e-09
6.016179e-09
6.4539929e-09
6.8437725e-09
7.1812788e-09
7.4682271e-09
7.7045641e-09
7.8962655e-09
8.047871e-09
8.1698442e-09
8.2654574e-09
8.3437581e-09
8.4076392e-09
8.458436e-09
8.5010797e-09
8.5675405e-09
8.6257201e-09
8.6567168e-09
8.6685763e-09
8.6688545e-09
8.6579039e-09
8.6606911e-09
0.00093748583
0.0021735421
0.0027105649
0.0026797172
0.0019434789
0.00043752864
5.4630116e-08
2.4958787e-09
2.2887747e-09
2.2986197e-09
2.2123717e-09
2.2471369e-09
2.2208369e-09
2.2680676e-09
2.2794877e-09
2.3398068e-09
2.3856609e-09
2.4657779e-09
2.549843e-09
2.6684119e-09
2.8079658e-09
2.9906342e-09
3.2139219e-09
3.4951187e-09
3.8355125e-09
4.2393145e-09
4.6932152e-09
5.1775831e-09
5.6643552e-09
6.1290837e-09
6.5531604e-09
6.9271027e-09
7.2488812e-09
7.5216094e-09
7.7455938e-09
7.9269982e-09
8.0703815e-09
8.186153e-09
8.2772349e-09
8.3525047e-09
8.4142612e-09
8.4628434e-09
8.5059002e-09
8.576477e-09
8.631536e-09
8.6598987e-09
8.6697632e-09
8.6688866e-09
8.6569757e-09
8.6592565e-09
0.00093501601
0.0021531275
0.0026628991
0.0025964156
0.0017962076
0.00034905739
2.2698248e-08
2.5065544e-09
2.3071888e-09
2.3186693e-09
2.2336603e-09
2.269903e-09
2.2449214e-09
2.29394e-09
2.3072903e-09
2.3701098e-09
2.4189949e-09
2.5029675e-09
2.5918525e-09
2.7164188e-09
2.8635882e-09
3.0556243e-09
3.2905128e-09
3.5852923e-09
3.9405524e-09
4.3581611e-09
4.8219723e-09
5.3097719e-09
5.7926269e-09
6.2469332e-09
6.6562592e-09
7.013554e-09
7.3189896e-09
7.5770217e-09
7.788235e-09
7.9589755e-09
8.0938452e-09
8.2032008e-09
8.289603e-09
8.3616955e-09
8.4211142e-09
8.4673983e-09
8.5110025e-09
8.5849155e-09
8.6371145e-09
8.6632811e-09
8.6713635e-09
8.668478e-09
8.6559637e-09
8.6579695e-09
0.00093283871
0.00213272
0.0026144105
0.0025079455
0.0016450652
0.00026791739
1.1164477e-08
2.5212418e-09
2.3271148e-09
2.3401006e-09
2.2564857e-09
2.2942468e-09
2.270733e-09
2.321639e-09
2.3371268e-09
2.4026205e-09
2.4548047e-09
2.5429229e-09
2.6370296e-09
2.7680858e-09
2.9235252e-09
3.1257315e-09
3.3731899e-09
3.6825733e-09
4.0535037e-09
4.4851758e-09
4.9584424e-09
5.4486369e-09
5.9262695e-09
6.3689101e-09
6.7624792e-09
7.1023922e-09
7.3909867e-09
7.6339723e-09
7.8321043e-09
7.9919043e-09
8.1180466e-09
8.220836e-09
8.3024632e-09
8.3712702e-09
8.4281481e-09
8.4721395e-09
8.5165959e-09
8.5927352e-09
8.6422226e-09
8.6665123e-09
8.6737916e-09
8.6674419e-09
8.6549113e-09
8.6568226e-09
0.00093063675
0.0021119252
0.0025647589
0.0024205255
0.0014921787
0.00019347356
6.5896311e-09
2.5387065e-09
2.3484084e-09
2.3629427e-09
2.2808381e-09
2.3201979e-09
2.2982753e-09
2.3512087e-09
2.369029e-09
2.4373965e-09
2.4931448e-09
2.585705e-09
2.685465e-09
2.8235423e-09
2.9879547e-09
3.201186e-09
3.4622318e-09
3.7872378e-09
4.1745413e-09
4.6203242e-09
5.1023295e-09
5.5936379e-09
6.0645878e-09
6.4942564e-09
6.8710798e-09
7.1929501e-09
7.4643116e-09
7.6920124e-09
7.8768488e-09
8.0255112e-09
8.142782e-09
8.2389148e-09
8.3157192e-09
8.3811715e-09
8.4353179e-09
8.4771566e-09
8.5230171e-09
8.5998474e-09
8.6468489e-09
8.6695543e-09
8.6760704e-09
8.6662458e-09
8.6538759e-09
8.6557977e-09
0.00092871777
0.0020913277
0.002512198
0.00233308
0.0013386745
0.0001257016
4.5905588e-09
2.5582146e-09
2.3712175e-09
2.3872225e-09
2.3067667e-09
2.3477772e-09
2.3276115e-09
2.3826909e-09
2.4030666e-09
2.4744813e-09
2.5340804e-09
2.6314108e-09
2.7372937e-09
2.8829775e-09
3.0571245e-09
3.2823016e-09
3.5579987e-09
3.8996287e-09
4.3038733e-09
4.7635716e-09
5.2533116e-09
5.7442127e-09
6.2068737e-09
6.6222163e-09
6.9813327e-09
7.2845792e-09
7.5384223e-09
7.7507058e-09
7.9221207e-09
8.0595248e-09
8.1678493e-09
8.2572941e-09
8.3292712e-09
8.3913327e-09
8.4425732e-09
8.4825506e-09
8.5305277e-09
8.6062629e-09
8.6509981e-09
8.6721608e-09
8.6781674e-09
8.6648904e-09
8.6528877e-09
8.6548722e-09
0.00092715814
0.002072083
0.0024637886
0.0022441781
0.0011864579
6.8683624e-05
3.6481341e-09
2.5792338e-09
2.3954925e-09
2.4129413e-09
2.3342924e-09
2.3770367e-09
2.3587822e-09
2.4161494e-09
2.4392765e-09
2.5139463e-09
2.5776893e-09
2.6801481e-09
2.7926706e-09
2.9465981e-09
3.1313027e-09
3.3694045e-09
3.6608624e-09
4.0200709e-09
4.4416651e-09
4.9148188e-09
5.4110132e-09
5.8997758e-09
6.3524296e-09
6.752073e-09
7.0925661e-09
7.3766937e-09
7.6128347e-09
7.8096596e-09
7.9676035e-09
8.0936956e-09
8.1930622e-09
8.2758417e-09
8.3430225e-09
8.4016737e-09
8.4498609e-09
8.4883922e-09
8.5389505e-09
8.6122846e-09
8.6547603e-09
8.6741844e-09
8.6792382e-09
8.6635423e-09
8.6519748e-09
8.6540233e-09
0.00092561599
0.0020522192
0.0024139949
0.002152057
0.0010378028
2.9797492e-05
3.1861518e-09
2.6016621e-09
2.421273e-09
2.4401814e-09
2.3634746e-09
2.4080357e-09
2.3918511e-09
2.4516197e-09
2.4777178e-09
2.555838e-09
2.6240667e-09
2.7320663e-09
2.8518005e-09
3.0146729e-09
3.2108235e-09
3.4629055e-09
3.7712663e-09
4.1489466e-09
4.5880888e-09
5.0739444e-09
5.5750233e-09
6.0597113e-09
6.5005464e-09
6.8831145e-09
7.204128e-09
7.4687355e-09
7.6870922e-09
7.8684965e-09
8.0129902e-09
8.1277823e-09
8.2182392e-09
8.2944308e-09
8.3568786e-09
8.4121168e-09
8.4572747e-09
8.4946973e-09
8.5480221e-09
8.6181201e-09
8.6581124e-09
8.6757557e-09
8.6796819e-09
8.6623078e-09
8.651134e-09
8.6532307e-09
0.00092423093
0.002032239
0.0023631607
0.0020556431
0.00089479645
1.0275469e-05
2.9593578e-09
2.6263879e-09
2.4486575e-09
2.469001e-09
2.3943696e-09
2.4408192e-09
2.4268351e-09
2.4891388e-09
2.5184238e-09
2.6002565e-09
2.6733439e-09
2.7873398e-09
2.9149096e-09
3.0874857e-09
3.2960362e-09
3.5632218e-09
3.8896453e-09
4.28659e-09
4.7432363e-09
5.2407262e-09
5.7448446e-09
6.2233567e-09
6.6505104e-09
7.0146599e-09
7.3154182e-09
7.5602045e-09
7.7607908e-09
7.9268816e-09
8.0580082e-09
8.1615712e-09
8.2432174e-09
8.312947e-09
8.3707528e-09
8.4225679e-09
8.4647177e-09
8.5014578e-09
8.5576842e-09
8.6238023e-09
8.6610072e-09
8.6770244e-09
8.6798068e-09
8.6611801e-09
8.6503536e-09
8.6524785e-09
0.00092291178
0.0020120401
0.0023110049
0.0019551409
0.00075966302
3.0250764e-06
2.8540147e-09
2.6531153e-09
2.4776382e-09
2.4994287e-09
2.4269818e-09
2.4753904e-09
2.4637579e-09
2.5287389e-09
2.5614847e-09
2.6473063e-09
2.7256839e-09
2.8461839e-09
2.9822753e-09
3.1653799e-09
3.3873672e-09
3.6708565e-09
4.0165072e-09
4.433366e-09
4.9071883e-09
5.4149075e-09
5.919944e-09
6.390024e-09
6.8015991e-09
7.1460378e-09
7.4258593e-09
7.650624e-09
7.8335429e-09
7.9844997e-09
8.1024035e-09
8.1948626e-09
8.2678423e-09
8.3312827e-09
8.3845612e-09
8.4329442e-09
8.4720715e-09
8.5086601e-09
8.5679176e-09
8.6294203e-09
8.663404e-09
8.6776097e-09
8.6797891e-09
8.6601659e-09
8.6496149e-09
8.6517562e-09
0.00092170888
0.0019919711
0.002257566
0.0018515021
0.00063392657
8.3290932e-07
2.8130475e-09
2.6813526e-09
2.5082682e-09
2.5314693e-09
2.4613117e-09
2.5117522e-09
2.502648e-09
2.5705028e-09
2.6070087e-09
2.6971545e-09
2.7812794e-09
2.9088371e-09
3.0541883e-09
3.2487133e-09
3.4852561e-09
3.7863156e-09
4.1523248e-09
4.5895496e-09
5.079897e-09
5.5961067e-09
6.0996939e-09
6.5589783e-09
6.9530858e-09
7.2766071e-09
7.5349224e-09
7.7395616e-09
7.9049921e-09
8.0410878e-09
8.14597e-09
8.2274866e-09
8.2919814e-09
8.3493433e-09
8.3982267e-09
8.4431883e-09
8.4793484e-09
8.516275e-09
8.5786001e-09
8.6350773e-09
8.6655405e-09
8.6778996e-09
8.6797199e-09
8.6592485e-09
8.6488868e-09
8.6510566e-09
0.00092073549
0.001972492
0.0022037305
0.0017411784
0.00051882078
2.3642071e-07
2.8061053e-09
2.7109603e-09
2.5403928e-09
2.5650998e-09
2.4973493e-09
2.5499559e-09
2.5435971e-09
2.6145579e-09
2.6551525e-09
2.7499714e-09
2.8403478e-09
2.9755775e-09
3.1309951e-09
3.3379159e-09
3.5902351e-09
3.910198e-09
4.2976335e-09
4.7554296e-09
5.2612898e-09
5.7838962e-09
6.2834293e-09
6.7294641e-09
7.1042479e-09
7.4057468e-09
7.642103e-09
7.8265997e-09
7.9747856e-09
8.0964208e-09
8.1885324e-09
8.2592827e-09
8.3155167e-09
8.3670416e-09
8.4116748e-09
8.4532331e-09
8.4865551e-09
8.5243325e-09
8.5894549e-09
8.64081e-09
8.6676848e-09
8.6779874e-09
8.6789332e-09
8.6582839e-09
8.6481239e-09
8.6503739e-09
0.000920004
0.0019535246
0.0021550936
0.00162407
0.00041732263
7.7134466e-08
2.8171722e-09
2.7421542e-09
2.5740779e-09
2.6003483e-09
2.5351864e-09
2.5901145e-09
2.5867469e-09
2.6610538e-09
2.706081e-09
2.8059572e-09
2.9031302e-09
3.0467052e-09
3.2130569e-09
3.4334375e-09
3.7028454e-09
4.0430831e-09
4.4528881e-09
4.9311632e-09
5.45113e-09
5.9776963e-09
6.4703737e-09
6.900673e-09
7.2543675e-09
7.532875e-09
7.7469405e-09
7.9113654e-09
8.0426254e-09
8.15034e-09
8.229954e-09
8.2901051e-09
8.338356e-09
8.3843028e-09
8.4248375e-09
8.4630322e-09
8.4937595e-09
8.5330037e-09
8.600003e-09
8.6464393e-09
8.6698812e-09
8.6780023e-09
8.6776563e-09
8.6571173e-09
8.647306e-09
8.6497026e-09
0.00091956396
0.0019338021
0.0021032232
0.0014991922
0.00032751529
3.0437834e-08
2.8383767e-09
2.7749548e-09
2.6094411e-09
2.6372982e-09
2.574933e-09
2.6323745e-09
2.6322474e-09
2.7101505e-09
2.7599653e-09
2.8653193e-09
2.9699017e-09
3.1225573e-09
3.3008063e-09
3.5358168e-09
3.823738e-09
4.1856353e-09
4.6185889e-09
5.1168927e-09
5.6491334e-09
6.1768675e-09
6.6597112e-09
7.0717871e-09
7.4027505e-09
7.6574493e-09
7.8490008e-09
7.9935293e-09
8.1083153e-09
8.2027202e-09
8.2700783e-09
8.3197979e-09
8.360417e-09
8.4010596e-09
8.4376501e-09
8.4725472e-09
8.50107e-09
8.5425752e-09
8.6096486e-09
8.6516435e-09
8.6721037e-09
8.6782555e-09
8.6757952e-09
8.6557726e-09
8.6464468e-09
8.649035e-09
0.00091924559
0.0019134709
0.0020506837
0.0013682251
0.00024601064
1.4538499e-08
2.8654218e-09
2.8092445e-09
2.6465597e-09
2.6762444e-09
2.6167564e-09
2.6768942e-09
2.680226e-09
2.7619929e-09
2.8169937e-09
2.9283077e-09
3.0409684e-09
3.2035066e-09
3.3946947e-09
3.6456226e-09
3.9535595e-09
4.338472e-09
4.7950921e-09
5.3125707e-09
5.8548027e-09
6.3806029e-09
6.8505135e-09
7.2419476e-09
7.5487305e-09
7.778988e-09
7.9479079e-09
8.072865e-09
8.1718739e-09
8.2534511e-09
8.3086977e-09
8.3482152e-09
8.3816223e-09
8.4172594e-09
8.4500537e-09
8.481741e-09
8.5085756e-09
8.5531766e-09
8.6180116e-09
8.6561404e-09
8.674034e-09
8.679364e-09
8.6733362e-09
8.6543375e-09
8.6455741e-09
8.6483621e-09
0.00091925762
0.0018925937
0.0019966657
0.001233145
0.00017216182
8.4758953e-09
2.896607e-09
2.8452496e-09
2.6854988e-09
2.7172305e-09
2.6608077e-09
2.7237613e-09
2.7308141e-09
2.8167435e-09
2.8773883e-09
2.9952001e-09
3.1166821e-09
3.2899822e-09
3.4952678e-09
3.7635302e-09
4.0930834e-09
4.5022792e-09
4.9827801e-09
5.518095e-09
6.0675749e-09
6.5880315e-09
7.0418188e-09
7.410318e-09
7.6917041e-09
7.8970642e-09
8.0433503e-09
8.1492595e-09
8.2335307e-09
8.302346e-09
8.3455216e-09
8.3752442e-09
8.4018723e-09
8.432861e-09
8.4619944e-09
8.4905898e-09
8.5163332e-09
8.5642796e-09
8.6253107e-09
8.6600574e-09
8.6756882e-09
8.6799819e-09
8.6707288e-09
8.6529281e-09
8.6447115e-09
8.6476739e-09
0.00091950125
0.0018707921
0.0019410397
0.0011007632
0.00010718508
5.897494e-09
2.9307247e-09
2.8829954e-09
2.7264122e-09
2.760241e-09
2.7071071e-09
2.7731077e-09
2.7841578e-09
2.8746119e-09
2.9414129e-09
3.0663187e-09
3.1974215e-09
3.3824435e-09
3.6031043e-09
3.8902465e-09
4.2430573e-09
4.6776422e-09
5.1818329e-09
5.733121e-09
6.2866499e-09
6.7980979e-09
7.2325793e-09
7.576097e-09
7.831133e-09
8.0112959e-09
8.1351202e-09
8.2227343e-09
8.2935093e-09
8.3490972e-09
8.3803048e-09
8.4008843e-09
8.4210583e-09
8.4478395e-09
8.4734268e-09
8.4990705e-09
8.5242907e-09
8.5752325e-09
8.6318194e-09
8.6633736e-09
8.6770175e-09
8.680196e-09
8.6682597e-09
8.6515519e-09
8.6438657e-09
8.6469609e-09
0.00091977852
0.001846478
0.0018825588
0.00097463725
5.5861357e-05
4.7005615e-09
2.9673738e-09
2.9227185e-09
2.7694241e-09
2.8054498e-09
2.7557342e-09
2.8250776e-09
2.8404676e-09
2.935858e-09
3.0093643e-09
3.1420089e-09
3.2836089e-09
3.481434e-09
3.7188949e-09
4.0266079e-09
4.4043345e-09
4.8651907e-09
5.3924084e-09
5.9572381e-09
6.5111503e-09
7.0097155e-09
7.4218268e-09
7.7386562e-09
7.9665552e-09
8.1212927e-09
8.2230951e-09
8.293382e-09
8.3513869e-09
8.3932776e-09
8.4131378e-09
8.425271e-09
8.4391143e-09
8.462173e-09
8.4843142e-09
8.5071671e-09
8.5323824e-09
8.5858422e-09
8.637603e-09
8.6659693e-09
8.677892e-09
8.6802501e-09
8.6658398e-09
8.6502627e-09
8.6430368e-09
8.6462144e-09
0.00091993021
0.0018186
0.0018202026
0.00085454639
2.3451499e-05
4.1162913e-09
3.006189e-09
2.9644613e-09
2.8145925e-09
2.853037e-09
2.8068699e-09
2.8798274e-09
2.8999983e-09
3.0007669e-09
3.0815735e-09
3.2226468e-09
3.3757137e-09
3.5875496e-09
3.843385e-09
4.1734658e-09
4.5776949e-09
5.0653663e-09
5.6143839e-09
6.1897309e-09
6.7399485e-09
7.2216919e-09
7.6087193e-09
7.8975605e-09
8.0975368e-09
8.2266162e-09
8.3071922e-09
8.3612769e-09
8.406341e-09
8.4346498e-09
8.4441075e-09
8.448584e-09
8.4561436e-09
8.4758318e-09
8.494638e-09
8.5148997e-09
8.540597e-09
8.5960255e-09
8.642725e-09
8.6679393e-09
8.6782841e-09
8.6801974e-09
8.6637091e-09
8.6490535e-09
8.6422143e-09
8.6454268e-09
0.00091987756
0.0017871181
0.0017528484
0.0007413389
8.1768723e-06
3.8297366e-09
3.0471167e-09
3.0082929e-09
2.8621111e-09
2.9031886e-09
2.8607226e-09
2.9376223e-09
2.9630184e-09
3.0696432e-09
3.158372e-09
3.3086395e-09
3.4742793e-09
3.7015013e-09
3.9774528e-09
4.3317997e-09
4.7639973e-09
5.2786142e-09
5.8475695e-09
6.4297975e-09
6.971887e-09
7.4329739e-09
7.7927533e-09
8.0525275e-09
8.2235871e-09
8.3268359e-09
8.387263e-09
8.42626e-09
8.4575099e-09
8.4734119e-09
8.4732352e-09
8.4707047e-09
8.4724913e-09
8.48876e-09
8.5043997e-09
8.5223667e-09
8.5490457e-09
8.6057087e-09
8.6473075e-09
8.6694909e-09
8.6784454e-09
8.6801008e-09
8.6617915e-09
8.6479008e-09
8.6413846e-09
8.644592e-09
0.00091941235
0.0017513911
0.001676562
0.00063554139
2.5462272e-06
3.6963879e-09
3.0903847e-09
3.0544494e-09
2.9120359e-09
2.9559414e-09
2.9176924e-09
2.9988061e-09
3.0297953e-09
3.1427777e-09
3.2401346e-09
3.4004329e-09
3.579937e-09
3.8240774e-09
4.122032e-09
4.5025569e-09
4.9639507e-09
5.505084e-09
6.0914165e-09
6.6762929e-09
7.2056398e-09
7.6426487e-09
7.9736463e-09
8.2029781e-09
8.3439867e-09
8.4218169e-09
8.4630651e-09
8.4876081e-09
8.5047766e-09
8.5109865e-09
8.5003714e-09
8.4907651e-09
8.48856e-09
8.5008927e-09
8.5136248e-09
8.5297888e-09
8.5580033e-09
8.6148201e-09
8.6514757e-09
8.6708086e-09
8.6785346e-09
8.6795624e-09
8.6600352e-09
8.6467824e-09
8.6405339e-09
8.6437046e-09
0.00091867795
0.0017119095
0.001588996
0.00053822688
7.6787979e-07
3.6449436e-09
3.1361062e-09
3.1030439e-09
2.9645768e-09
3.0115831e-09
2.9778256e-09
3.0635788e-09
3.1006321e-09
3.2204744e-09
3.3272778e-09
3.498617e-09
3.693432e-09
3.9562036e-09
4.2781845e-09
4.6868059e-09
5.1782923e-09
5.7448846e-09
6.3452716e-09
6.9280311e-09
7.440031e-09
7.8502119e-09
8.1510434e-09
8.3475368e-09
8.4583011e-09
8.5116135e-09
8.5344226e-09
8.5449245e-09
8.5494144e-09
8.546552e-09
8.5254247e-09
8.5093024e-09
8.5040767e-09
8.5122109e-09
8.5223512e-09
8.5372988e-09
8.5678622e-09
8.6231543e-09
8.6553021e-09
8.6717452e-09
8.6781948e-09
8.6785542e-09
8.6584177e-09
8.6456761e-09
8.6396487e-09
8.642761e-09
0.00091790386
0.0016698231
0.0014920846
0.00044936859
2.4229187e-07
3.6385237e-09
3.1843744e-09
3.1542074e-09
3.0198984e-09
3.0702721e-09
3.0413523e-09
3.1321945e-09
3.1758411e-09
3.3031056e-09
3.420328e-09
3.6039367e-09
3.8156111e-09
4.0988722e-09
4.4470015e-09
4.8854956e-09
5.4075116e-09
5.9977106e-09
6.6080768e-09
7.18357e-09
7.6739832e-09
8.0553323e-09
8.323402e-09
8.4853387e-09
8.565864e-09
8.5961301e-09
8.6015901e-09
8.5984252e-09
8.5920483e-09
8.5797461e-09
8.5483421e-09
8.5264449e-09
8.5188685e-09
8.5228321e-09
8.5306059e-09
8.5451664e-09
8.5787886e-09
8.6303552e-09
8.6587964e-09
8.6723716e-09
8.6772051e-09
8.6770596e-09
8.6569021e-09
8.644559e-09
8.6387189e-09
8.6417583e-09
0.00091724091
0.0016257313
0.0013868879
0.00036658072
8.6659012e-08
3.6572885e-09
3.2351987e-09
3.2080867e-09
3.078235e-09
3.1322942e-09
3.1086104e-09
3.204824e-09
3.2557243e-09
3.3911494e-09
3.5199253e-09
3.7171896e-09
3.9474317e-09
4.2532219e-09
4.6296915e-09
5.0996705e-09
5.6520543e-09
6.2631871e-09
6.8786931e-09
7.4416313e-09
7.9068404e-09
8.2574501e-09
8.4889853e-09
8.615246e-09
8.6663695e-09
8.6757098e-09
8.6651065e-09
8.6487296e-09
8.632137e-09
8.6105531e-09
8.5693153e-09
8.5423545e-09
8.5324852e-09
8.5330344e-09
8.5384095e-09
8.5531983e-09
8.5897478e-09
8.6368047e-09
8.6618784e-09
8.6730842e-09
8.6763672e-09
8.6751714e-09
8.655381e-09
8.6434086e-09
8.6377455e-09
8.6406954e-09
0.00091659327
0.0015793396
0.0012797183
0.00029305302
3.7475209e-08
3.6908241e-09
3.2888379e-09
3.2649521e-09
3.1397942e-09
3.197904e-09
3.1798622e-09
3.2817925e-09
3.3407177e-09
3.4852322e-09
3.626848e-09
3.8392466e-09
4.0899407e-09
4.4204355e-09
4.8274281e-09
5.3301382e-09
5.9119641e-09
6.5404266e-09
7.1556329e-09
7.7009112e-09
8.138108e-09
8.4543878e-09
8.6463965e-09
8.7364564e-09
8.7608001e-09
8.7511626e-09
8.7243701e-09
8.695857e-09
8.6698716e-09
8.6389963e-09
8.5885421e-09
8.5571414e-09
8.5445765e-09
8.5429916e-09
8.5458011e-09
8.5615181e-09
8.600379e-09
8.6424896e-09
8.6644166e-09
8.6736248e-09
8.6759894e-09
8.6728323e-09
8.6537745e-09
8.6422409e-09
8.636738e-09
8.6395725e-09
0.00091586235
0.0015280787
0.0011740817
0.00022471966
1.899185e-08
3.7333999e-09
3.3454149e-09
3.3249866e-09
3.2047355e-09
3.2672829e-09
3.2553597e-09
3.3635983e-09
3.4315015e-09
3.5860804e-09
3.7419608e-09
3.9711129e-09
4.2443098e-09
4.6018384e-09
5.0415014e-09
5.5777278e-09
6.1871894e-09
6.8284467e-09
7.4375124e-09
7.9605139e-09
8.3671999e-09
8.6437672e-09
8.7941026e-09
8.8493683e-09
8.8508368e-09
8.8213834e-09
8.7797003e-09
8.7399762e-09
8.7052116e-09
8.6651422e-09
8.6061184e-09
8.5706984e-09
8.5555034e-09
8.5524222e-09
8.5528702e-09
8.5697183e-09
8.610369e-09
8.6475151e-09
8.6665425e-09
8.6741332e-09
8.675813e-09
8.6703765e-09
8.6521851e-09
8.6410724e-09
8.6357017e-09
8.6383921e-09
0.00091592997
0.0014752105
0.0010662294
0.00016137066
1.1411419e-08
3.7820902e-09
3.404889e-09
3.3883269e-09
3.273331e-09
3.3407904e-09
3.3356225e-09
3.4508473e-09
3.5287974e-09
3.6944713e-09
3.8662129e-09
4.1138841e-09
4.411792e-09
4.7987857e-09
5.2730486e-09
5.8428833e-09
6.4771359e-09
7.1257709e-09
7.7227944e-09
8.2196536e-09
8.5915111e-09
8.8237885e-09
8.9313236e-09
8.9564683e-09
8.9350832e-09
8.8867963e-09
8.8311296e-09
8.7812081e-09
8.7382314e-09
8.689049e-09
8.6221093e-09
8.5830287e-09
8.5654538e-09
8.5610923e-09
8.5597784e-09
8.5778619e-09
8.619543e-09
8.651919e-09
8.6683066e-09
8.6746079e-09
8.6757325e-09
8.6680464e-09
8.65065e-09
8.6399028e-09
8.6346381e-09
8.6371587e-09
0.00091731464
0.0014263318
0.00095896505
0.00010458215
7.9777722e-09
3.8350833e-09
3.4674405e-09
3.4552456e-09
3.3460277e-09
3.419014e-09
3.421294e-09
3.5442987e-09
3.633364e-09
3.8113153e-09
4.0006333e-09
4.268762e-09
4.5938038e-09
5.0127867e-09
5.5232845e-09
6.1259743e-09
6.7811058e-09
7.4309812e-09
8.0102971e-09
8.4776611e-09
8.8081832e-09
8.992695e-09
9.0594013e-09
9.0579356e-09
9.0134496e-09
8.9473616e-09
8.8788703e-09
8.8196852e-09
8.7689552e-09
8.7107305e-09
8.6366008e-09
8.5942329e-09
8.5746206e-09
8.5689121e-09
8.5666024e-09
8.5861119e-09
8.6277287e-09
8.6557367e-09
8.6697203e-09
8.6748547e-09
8.6755949e-09
8.6659141e-09
8.6491584e-09
8.638729e-09
8.6335513e-09
8.6358787e-09
0.00091938123
0.0013738465
0.00085318122
5.8471727e-05
6.3032028e-09
3.8917261e-09
3.5335373e-09
3.5263615e-09
3.4235085e-09
3.5025794e-09
3.5131045e-09
3.6446539e-09
3.7460557e-09
3.9376586e-09
4.1463511e-09
4.4370832e-09
4.791821e-09
5.2453231e-09
5.7930719e-09
6.426828e-09
7.0977313e-09
7.7423583e-09
8.2988128e-09
8.7320953e-09
9.0146227e-09
9.1494171e-09
9.1809147e-09
9.1526642e-09
9.0859791e-09
9.0033093e-09
8.9230844e-09
8.8555406e-09
8.7974238e-09
8.7301766e-09
8.6497158e-09
8.6043389e-09
8.5829694e-09
8.576219e-09
8.573354e-09
8.594705e-09
8.6346645e-09
8.6589425e-09
8.6708714e-09
8.6749954e-09
8.6754028e-09
8.6637383e-09
8.6477531e-09
8.6375592e-09
8.6324462e-09
8.6345588e-09
0.00092235705
0.0013184397
0.00075105704
2.7503188e-05
5.4495632e-09
3.9522728e-09
3.6040644e-09
3.602273e-09
3.5064013e-09
3.5921738e-09
3.6117049e-09
3.7526919e-09
3.8678278e-09
4.0745814e-09
4.3046228e-09
4.6203237e-09
5.0075526e-09
5.4979399e-09
6.0832948e-09
6.7450897e-09
7.4256813e-09
8.0584253e-09
8.587533e-09
8.9795688e-09
9.2088096e-09
9.29548e-09
9.2958488e-09
9.240459e-09
9.1528367e-09
9.0548091e-09
8.9639728e-09
8.8889018e-09
8.8236667e-09
8.7473963e-09
8.6615411e-09
8.613385e-09
8.5905862e-09
8.5831878e-09
8.5801156e-09
8.6036862e-09
8.6402045e-09
8.6615001e-09
8.6718201e-09
8.6750814e-09
8.6751068e-09
8.6617378e-09
8.6464087e-09
8.6363961e-09
8.6313277e-09
8.6332054e-09
0.00092639376
0.0012598093
0.00065403989
1.108247e-05
5.010204e-09
4.0174843e-09
3.6795683e-09
3.68372e-09
3.5953078e-09
3.6883696e-09
3.7178012e-09
3.8693034e-09
3.9997294e-09
4.2232384e-09
4.4768375e-09
4.8201476e-09
5.242741e-09
5.7719858e-09
6.3942309e-09
7.0797122e-09
7.7630884e-09
8.3775578e-09
8.8745576e-09
9.2164048e-09
9.3891363e-09
9.4336308e-09
9.4030362e-09
9.3214363e-09
9.2142215e-09
9.1020894e-09
9.0017317e-09
8.9199008e-09
8.8477296e-09
8.7625578e-09
8.6720229e-09
8.6214359e-09
8.5975967e-09
8.5899504e-09
8.5869083e-09
8.6124805e-09
8.6449451e-09
8.6634529e-09
8.6722158e-09
8.6749246e-09
8.6746336e-09
8.6598744e-09
8.6451373e-09
8.6352615e-09
8.6302084e-09
8.6318216e-09
0.00093170163
0.0012005189
0.00056331537
4.0364015e-06
4.7940499e-09
4.0892674e-09
3.7603577e-09
3.7710925e-09
3.6907538e-09
3.7917993e-09
3.8322146e-09
3.995561e-09
4.1429015e-09
4.3849191e-09
4.664548e-09
5.0384611e-09
5.4993128e-09
6.0688325e-09
6.7260181e-09
7.4295308e-09
8.1083395e-09
8.6986056e-09
9.1560882e-09
9.4402589e-09
9.5566208e-09
9.5644195e-09
9.5020659e-09
9.3957851e-09
9.2703761e-09
9.1453832e-09
9.0365689e-09
8.948665e-09
8.8696456e-09
8.7757073e-09
8.6811825e-09
8.6285996e-09
8.6041321e-09
8.5965571e-09
8.5937147e-09
8.6208581e-09
8.6490599e-09
8.6650169e-09
8.6723716e-09
8.6745401e-09
8.6739709e-09
8.6581216e-09
8.6439204e-09
8.6341873e-09
8.6291242e-09
8.6304058e-09
0.00093790332
0.0011377843
0.00047929342
1.4130606e-06
4.7038296e-09
4.1676002e-09
3.8469064e-09
3.8648221e-09
3.7933432e-09
3.9032606e-09
3.9559598e-09
4.1324642e-09
4.298627e-09
4.5611291e-09
4.8695699e-09
5.2773169e-09
5.779109e-09
6.389348e-09
7.0780105e-09
7.7926681e-09
8.4594376e-09
9.0200068e-09
9.4275135e-09
9.6487862e-09
9.7141714e-09
9.6864692e-09
9.5931328e-09
9.463747e-09
9.3215603e-09
9.18494e-09
9.0687003e-09
8.9753231e-09
8.8894456e-09
8.7868622e-09
8.6890845e-09
8.6350068e-09
8.6102916e-09
8.6030088e-09
8.6004531e-09
8.6280567e-09
8.6526945e-09
8.66633e-09
8.672378e-09
8.6739492e-09
8.6730858e-09
8.6564593e-09
8.6426835e-09
8.6331596e-09
8.6281901e-09
8.6289567e-09
0.00094410736
0.0010671185
0.00040261001
5.0770187e-07
4.6851671e-09
4.2508306e-09
3.9393952e-09
3.9655405e-09
3.904027e-09
4.0238093e-09
4.0902019e-09
4.2811359e-09
4.4682557e-09
4.7536073e-09
5.094004e-09
5.5390042e-09
6.0840122e-09
6.7342476e-09
7.4493941e-09
8.1673982e-09