/*--------------------------------*- C++ -*----------------------------------*\
  =========                 |
  \\      /  F ield         | OpenFOAM: The Open Source CFD Toolbox
   \\    /   O peration     | Website:  https://openfoam.org
    \\  /    A nd           | Version:  8
     \\/     M anipulation  |
\*---------------------------------------------------------------------------*/
FoamFile
{
    version     2.0;
    format      ascii;
    class       volVectorField;
    location    "0.10999";
    object      cellDisplacement;
}
// * * * * * * * * * * * * * * * * * * * * * * * * * * * * * * * * * * * * * //

dimensions      [0 1 0 0 0 0 0];

internalField   nonuniform List<vector> 
20000
(
(0.0025814339 0 0.0020598624)
(0.0025814166 0 0.0020594169)
(0.0025813785 0 0.0020582169)
(0.0025812933 0 0.0020568252)
(0.0025811402 0 0.0020552049)
(0.0025808896 0 0.0020533309)
(0.0025805005 0 0.0020511821)
(0.0025799165 0 0.0020487444)
(0.0025790602 0 0.0020460164)
(0.0025778268 0 0.002043019)
(0.0025760746 0 0.0020398083)
(0.0025736133 0 0.0020364958)
(0.0025701898 0 0.002033278)
(0.0025654697 0 0.00203048)
(0.0025590159 0 0.0020286163)
(0.0025502633 0 0.002028477)
(0.0025384918 0 0.002031245)
(0.0025227991 0 0.0020386585)
(0.0025020797 0 0.002053216)
(0.0024750154 0 0.0020784409)
(0.0024400897 0 0.0021191546)
(0.0023956418 0 0.0021817187)
(0.002339974 0 0.0022741545)
(0.002271527 0 0.0024059621)
(0.0021891162 0 0.0025876165)
(0.0020921924 0 0.0028294452)
(0.0019810757 0 0.0031397915)
(0.001857082 0 0.0035228732)
(0.0017225205 0 0.00397665)
(0.0015804982 0 0.0044912414)
(0.0014346174 0 0.0050489488)
(0.0012886558 0 0.0056254783)
(0.0011461982 0 0.0061935613)
(0.0010102797 0 0.0067260215)
(0.00088324965 0 0.007200141)
(0.0007666062 0 0.0075983123)
(0.00066104392 0 0.0079094138)
(0.00056661234 0 0.0081275265)
(0.00048288328 0 0.0082495806)
(0.00040909759 0 0.0082737714)
(0.00034457119 0 0.0081995943)
(0.00028815313 0 0.0080219773)
(0.00023898367 0 0.0077337104)
(0.00019622467 0 0.0073273136)
(0.00015909172 0 0.0067874881)
(0.00012648924 0 0.0060954205)
(9.7428901e-05 0 0.0052217618)
(7.0353096e-05 0 0.0041275839)
(4.3601108e-05 0 0.0027437939)
(1.4534502e-05 0 0.0009670083)
(0.0025881124 0 0.0016931778)
(0.0025881052 0 0.0016919644)
(0.0025880648 0 0.0016905559)
(0.0025879767 0 0.0016888928)
(0.0025878192 0 0.0016869481)
(0.0025875624 0 0.0016846849)
(0.0025871643 0 0.0016820676)
(0.0025865674 0 0.0016790651)
(0.0025856931 0 0.0016756575)
(0.0025844346 0 0.0016718448)
(0.0025826479 0 0.0016676616)
(0.0025801399 0 0.0016631965)
(0.0025766535 0 0.0016586233)
(0.0025718499 0 0.0016542437)
(0.0025652862 0 0.0016505497)
(0.0025563907 0 0.001648311)
(0.0025444357 0 0.0016486985)
(0.0025285114 0 0.0016534524)
(0.0025075053 0 0.0016651106)
(0.0024800951 0 0.0016872919)
(0.0024447648 0 0.0017249722)
(0.0023998624 0 0.0017847272)
(0.0023437126 0 0.0018748679)
(0.0022747964 0 0.002005199)
(0.002191992 0 0.0021865734)
(0.0020948261 0 0.0024297373)
(0.0019836906 0 0.0027434127)
(0.0018599525 0 0.0031321699)
(0.0017259216 0 0.0035942952)
(0.0015846424 0 0.004120214)
(0.001439603 0 0.0046924181)
(0.0012944386 0 0.0052867024)
(0.0011526056 0 0.0058755986)
(0.0010170632 0 0.0064314456)
(0.00089013266 0 0.0069307869)
(0.00077333374 0 0.0073551657)
(0.00066741632 0 0.0076925502)
(0.00057249235 0 0.0079362741)
(0.00048819222 0 0.0080827453)
(0.00041381226 0 0.0081298541)
(0.00034867589 0 0.0080768182)
(0.0002916889 0 0.0079187915)
(0.00024198595 0 0.0076487052)
(0.00019872962 0 0.007258831)
(0.00016112617 0 0.0067341434)
(0.00012809754 0 0.0060556163)
(9.8633435e-05 0 0.0051938672)
(7.1191369e-05 0 0.0041093134)
(4.4078422e-05 0 0.0027328867)
(1.4647628e-05 0 0.00096099588)
(0.0025932242 0 0.0013343439)
(0.0025932143 0 0.0013329054)
(0.0025931703 0 0.0013312221)
(0.002593077 0 0.0013292417)
(0.0025929125 0 0.0013269201)
(0.002592646 0 0.0013242104)
(0.0025922348 0 0.001321066)
(0.0025916201 0 0.0013174425)
(0.0025907219 0 0.0013133047)
(0.0025894312 0 0.0013086352)
(0.0025876013 0 0.0013034479)
(0.0025850358 0 0.0012978088)
(0.0025814733 0 0.0012918666)
(0.0025765696 0 0.001285897)
(0.0025698756 0 0.0012803661)
(0.002560812 0 0.0012760215)
(0.002548643 0 0.0012740192)
(0.0025324509 0 0.0012761052)
(0.0025111168 0 0.0012848592)
(0.0024833149 0 0.0013040316)
(0.0024475299 0 0.0013387632)
(0.0024021206 0 0.0013958409)
(0.0023454371 0 0.0014838808)
(0.0022760058 0 0.0016129438)
(0.0021927764 0 0.0017942454)
(0.0020953597 0 0.0020389259)
(0.0019842262 0 0.0023560223)
(0.001860799 0 0.0027503937)
(0.0017273898 0 0.003220597)
(0.0015869787 0 0.0037573209)
(0.0014429335 0 0.0043432403)
(0.0012987402 0 0.0049542605)
(0.0011577177 0 0.0055627945)
(0.0010227388 0 0.0061407765)
(0.0008960877 0 0.006664129)
(0.00077929799 0 0.0071136174)
(0.00067316955 0 0.0074763536)
(0.00057787548 0 0.0077449481)
(0.0004931051 0 0.0079152714)
(0.00041821201 0 0.0079848791)
(0.00035253326 0 0.0079527044)
(0.00029502948 0 0.0078140668)
(0.00024483561 0 0.0075620191)
(0.00020111693 0 0.0071886055)
(0.00016307268 0 0.0066790305)
(0.00012964146 0 0.0060140903)
(9.9793749e-05 0 0.0051643596)
(7.2000936e-05 0 0.0040896811)
(4.454084e-05 0 0.0027210412)
(1.475825e-05 0 0.00095482918)
(0.0025968107 0 0.00098321615)
(0.0025967962 0 0.00098155912)
(0.0025967461 0 0.00097961532)
(0.0025966449 0 0.00097732445)
(0.00259647 0 0.00097463356)
(0.0025961898 0 0.00097148555)
(0.0025957606 0 0.0009678209)
(0.0025951223 0 0.00096358152)
(0.002594193 0 0.00095871604)
(0.0025928615 0 0.00095318871)
(0.0025909783 0 0.00094699328)
(0.002588343 0 0.00094017339)
(0.0025846897 0 0.00093285332)
(0.0025796681 0 0.00092528259)
(0.0025728222 0 0.00091790159)
(0.0025635644 0 0.00091143394)
(0.0025511504 0 0.0009070201)
(0.0025346543 0 0.00090640548)
(0.0025129524 0 0.00091221652)
(0.0024847161 0 0.00092841667)
(0.0024484298 0 0.00096029843)
(0.0024024654 0 0.0010148372)
(0.0023452015 0 0.0011009974)
(0.0022752145 0 0.0012290082)
(0.0021915351 0 0.0014104509)
(0.0020938657 0 0.0016568462)
(0.0019827603 0 0.0019774747)
(0.0018597016 0 0.0023774262)
(0.0017270044 0 0.0028554773)
(0.0015875809 0 0.0034025396)
(0.001444673 0 0.0040014607)
(0.0013016119 0 0.0046282713)
(0.0011615722 0 0.0052553384)
(0.0010273308 0 0.0058542577)
(0.00090112826 0 0.0064004466)
(0.0007845039 0 0.0068739601)
(0.00067830301 0 0.0072611115)
(0.0005827576 0 0.0075538162)
(0.00049761626 0 0.0077474001)
(0.00042229053 0 0.0078390552)
(0.00035613716 0 0.007827431)
(0.00029816933 0 0.0077079524)
(0.00024752792 0 0.0074737777)
(0.0002033825 0 0.0071167376)
(0.00016492792 0 0.0066222317)
(0.00013111826 0 0.005970904)
(0.00010090815 0 0.0051332907)
(7.2780803e-05 0 0.0040687248)
(4.4987895e-05 0 0.0027082828)
(1.4866178e-05 0 0.00094850716)
(0.0025989191 0 0.0006396316)
(0.0025988981 0 0.00063775752)
(0.0025988396 0 0.00063555515)
(0.0025987275 0 0.00063295645)
(0.0025985386 0 0.00062989927)
(0.0025982403 0 0.00062631563)
(0.0025977879 0 0.00062213386)
(0.0025971196 0 0.00061728135)
(0.0025961517 0 0.00061169074)
(0.0025947704 0 0.00060530769)
(0.0025928229 0 0.00059810518)
(0.0025901046 0 0.00059010389)
(0.0025863445 0 0.00058140266)
(0.0025811859 0 0.00057222441)
(0.0025741649 0 0.00056298159)
(0.0025646853 0 0.00055437221)
(0.0025519932 0 0.00054751593)
(0.0025351547 0 0.00054415242)
(0.0025130455 0 0.00054690873)
(0.0024843342 0 0.00056021951)
(0.0024474998 0 0.00058938989)
(0.0024009323 0 0.00064153788)
(0.0023430414 0 0.00072610057)
(0.0022724577 0 0.00085329238)
(0.0021883055 0 0.0010351137)
(0.0020903843 0 0.0012834577)
(0.0019793351 0 0.0016077642)
(0.0018567043 0 0.0020132974)
(0.001724809 0 0.0024990076)
(0.0015864894 0 0.0030559897)
(0.0014448561 0 0.0036672509)
(0.0013030804 0 0.0043089576)
(0.0011641866 0 0.0049534992)
(0.001030848 0 0.0055721907)
(0.00090525581 0 0.0061400574)
(0.00078894763 0 0.0066365115)
(0.00068280937 0 0.0070471246)
(0.00058712982 0 0.0073631523)
(0.00050171625 0 0.0075793721)
(0.00042603903 0 0.0076925899)
(0.00035947941 0 0.0077011697)
(0.00030110167 0 0.007600591)
(0.00025005712 0 0.0073840969)
(0.00020552175 0 0.0070433191)
(0.00016668814 0 0.0065638181)
(0.00013252529 0 0.0059261126)
(0.0001019743 0 0.005100697)
(7.3529402e-05 0 0.0040464652)
(4.5418623e-05 0 0.0026946223)
(1.4971102e-05 0 0.00094202312)
(0.0025995904 0 0.00030343282)
(0.0025995608 0 0.00030134139)
(0.0025994915 0 0.00029887976)
(0.0025993657 0 0.00029597281)
(0.0025991592 0 0.00029254926)
(0.0025988387 0 0.00028853066)
(0.0025983578 0 0.0002838331)
(0.0025976533 0 0.00027836981)
(0.0025966391 0 0.00027205666)
(0.0025951988 0 0.00026482044)
(0.0025931757 0 0.00025661281)
(0.0025903609 0 0.00024743024)
(0.0025864774 0 0.00023734577)
(0.0025811617 0 0.00022655368)
(0.0025739413 0 0.00021543658)
(0.0025642102 0 0.00020466297)
(0.0025512043 0 0.00019533195)
(0.0025339808 0 0.00018918968)
(0.0025114293 0 0.00018950654)
(0.0024822097 0 0.00020023718)
(0.0024447806 0 0.0002268816)
(0.0023975645 0 0.00027670833)
(0.0023389933 0 0.00035909784)
(0.0022677711 0 0.00048570964)
(0.0021831255 0 0.00066816667)
(0.002084957 0 0.0009187317)
(0.0019739953 0 0.0012468913)
(0.0018518539 0 0.0016580392)
(0.0017208505 0 0.0021512554)
(0.0015837485 0 0.0027177808)
(0.0014435216 0 0.0033407668)
(0.0013031764 0 0.0039965229)
(0.0011655824 0 0.0046575266)
(0.0010333032 0 0.0052948571)
(0.00090847522 0 0.0058832624)
(0.00079262803 0 0.0064015752)
(0.00068668365 0 0.0068346842)
(0.00059098482 0 0.0071732241)
(0.00050539694 0 0.0074114259)
(0.00042944933 0 0.0075456875)
(0.0003625523 0 0.0075740919)
(0.00030381968 0 0.0074921231)
(0.00025241749 0 0.0072930923)
(0.00020752982 0 0.0069684393)
(0.00016834939 0 0.0065038598)
(0.00013385939 0 0.0058797661)
(0.0001029902 0 0.0050666197)
(7.4245505e-05 0 0.0040229322)
(4.5832404e-05 0 0.0026800801)
(1.5072822e-05 0 0.00093537642)
(0.0025988622 0 -2.5532117e-05)
(0.0025988222 0 -2.7839865e-05)
(0.0025987397 0 -3.0559186e-05)
(0.0025985973 0 -3.3772717e-05)
(0.0025983699 0 -3.7561198e-05)
(0.0025980229 0 -4.2013631e-05)
(0.0025975087 0 -4.7226473e-05)
(0.0025967619 0 -5.3300751e-05)
(0.002595694 0 -6.033674e-05)
(0.0025941854 0 -6.8426787e-05)
(0.0025920756 0 -7.7640661e-05)
(0.0025891504 0 -8.8005983e-05)
(0.0025851267 0 -9.947756e-05)
(0.0025796329 0 -0.00011189155)
(0.0025721873 0 -0.00012489916)
(0.0025621734 0 -0.0001378656)
(0.0025488175 0 -0.00014970732)
(0.0025311988 0 -0.00015806905)
(0.0025081814 0 -0.00015987007)
(0.002478387 0 -0.00015148641)
(0.0024403041 0 -0.00012721266)
(0.0023923661 0 -7.9549594e-05)
(0.0023330731 0 7.5796352e-07)
(0.0022611899 0 0.00012616741)
(0.0021760342 0 0.00030953782)
(0.0020776273 0 0.00056263623)
(0.0019667875 0 0.00089484773)
(0.0018451996 0 0.0013116681)
(0.0017151788 0 0.0018122673)
(0.0015794058 0 0.0023879964)
(0.0014407115 0 0.003022135)
(0.0013019344 0 0.0036911381)
(0.001165785 0 0.0043676366)
(0.0010347126 0 0.0050225066)
(0.00091079481 0 0.0056303339)
(0.00079554714 0 0.0061694313)
(0.00068992332 0 0.0066240626)
(0.00059431746 0 0.006984286)
(0.00050865174 0 0.0072437901)
(0.00043251468 0 0.0073985486)
(0.00036534915 0 0.0074463665)
(0.00030631755 0 0.0073826906)
(0.00025460395 0 0.0072008805)
(0.00020940252 0 0.0068921914)
(0.00016990818 0 0.0064424298)
(0.000135118 0 0.0058319215)
(0.00010395354 0 0.0050310968)
(7.4927556e-05 0 0.0039981494)
(4.6228301e-05 0 0.0026646691)
(1.517099e-05 0 0.00092856102)
(0.0025967759 0 -0.00034741374)
(0.0025967234 0 -0.00034993883)
(0.0025966253 0 -0.00035291689)
(0.0025964634 0 -0.00035643823)
(0.0025962116 0 -0.00036059216)
(0.0025958339 0 -0.00036547861)
(0.002595281 0 -0.00037120632)
(0.0025944855 0 -0.00037789041)
(0.0025933562 0 -0.00038564806)
(0.0025917698 0 -0.00039459055)
(0.0025895614 0 -0.00040480956)
(0.0025865114 0 -0.00041635795)
(0.0025823295 0 -0.00042921893)
(0.0025766355 0 -0.00044326229)
(0.0025689371 0 -0.00045817946)
(0.0025586076 0 -0.00047337134)
(0.0025448955 0 -0.00048726977)
(0.0025268588 0 -0.00049760906)
(0.0025033111 0 -0.00050181289)
(0.002472891 0 -0.00049580884)
(0.0024340976 0 -0.0004738211)
(0.0023853877 0 -0.00042812094)
(0.0023253157 0 -0.00034898675)
(0.0022527407 0 -0.00022455151)
(0.0021670713 0 -4.0839764e-05)
(0.0020684398 0 0.00021515544)
(0.00195776 0 0.00055163467)
(0.001836793 0 0.00097420478)
(0.0017078467 0 0.0014820891)
(0.0015735121 0 0.0020667144)
(0.0014364715 0 0.0027114707)
(0.001299392 0 0.0033929587)
(0.001164823 0 0.0040840285)
(0.0010350955 0 0.0047553706)
(0.00091222578 0 0.0053815276)
(0.00079770932 0 0.0059403459)
(0.00069252797 0 0.0064155221)
(0.00059712411 0 0.0067965847)
(0.00051147531 0 0.0070766894)
(0.00043522898 0 0.0072513694)
(0.00036786376 0 0.0073181609)
(0.00030858947 0 0.0072724324)
(0.00025661143 0 0.0071075772)
(0.00021113544 0 0.0068146662)
(0.00017136082 0 0.0063795996)
(0.00013629807 0 0.0057826304)
(0.00010486236 0 0.0049941707)
(7.5574283e-05 0 0.0039721472)
(4.6605628e-05 0 0.0026484095)
(1.5265406e-05 0 0.00092157746)
(0.0025933731 0 -0.00066235854)
(0.002593306 0 -0.00066510031)
(0.0025931898 0 -0.00066833612)
(0.0025930053 0 -0.00067216418)
(0.0025927252 0 -0.00067668303)
(0.0025923123 0 -0.00068200302)
(0.0025917151 0 -0.00068824516)
(0.0025908641 0 -0.00069553905)
(0.0025896649 0 -0.00070401811)
(0.0025879905 0 -0.00071381232)
(0.0025856712 0 -0.00072503531)
(0.002582481 0 -0.00073776473)
(0.002578122 0 -0.00075201282)
(0.0025722041 0 -0.00076768485)
(0.0025642239 0 -0.00078452543)
(0.0025535727 0 -0.00080162644)
(0.0025394857 0 -0.00081736389)
(0.0025209715 0 -0.00082995842)
(0.0024968467 0 -0.00083652288)
(0.002465749 0 -0.00083286705)
(0.0024261897 0 -0.00081308091)
(0.0023766571 0 -0.00076916865)
(0.0023157644 0 -0.00069102955)
(0.0022424628 0 -0.00056652272)
(0.0021562761 0 -0.00038220953)
(0.002057441 0 -0.00012372563)
(0.0019469626 0 0.00021724555)
(0.0018266876 0 0.00064565669)
(0.0016989091 0 0.0011607477)
(0.0015661206 0 0.0017539887)
(0.0014308498 0 0.0024088623)
(0.0012955902 0 0.0031021092)
(0.0011627284 0 0.00380687)
(0.0010344745 0 0.0044936494)
(0.00091278235 0 0.0051370709)
(0.00079912185 0 0.0057145607)
(0.00069449956 0 0.006209304)
(0.0005994032 0 0.0066103516)
(0.00051386385 0 0.0069103369)
(0.00043758753 0 0.0071043399)
(0.000370091 0 0.0071896386)
(0.00031063067 0 0.0071614876)
(0.00025843557 0 0.0070132979)
(0.00021272481 0 0.0067359574)
(0.00017270408 0 0.006315443)
(0.00013739715 0 0.0057319511)
(0.00010571437 0 0.0049558802)
(7.6184104e-05 0 0.0039449504)
(4.6963438e-05 0 0.0026313151)
(1.5355695e-05 0 0.00091442025)
(0.0025886915 0 -0.00097051025)
(0.0025886077 0 -0.00097346884)
(0.0025884708 0 -0.000976963)
(0.0025882604 0 -0.00098109836)
(0.0025879482 0 -0.00098598232)
(0.0025874952 0 -0.0009917356)
(0.002586848 0 -0.00099849112)
(0.0025859344 0 -0.0010063929)
(0.0025846569 0 -0.0010155908)
(0.0025828842 0 -0.0010262334)
(0.0025804412 0 -0.0010384553)
(0.0025770953 0 -0.0010523573)
(0.0025725399 0 -0.0010679752)
(0.0025663741 0 -0.0010852323)
(0.002558101 0 -0.0011038674)
(0.0025471114 0 -0.001122691)
(0.0025326006 0 -0.0011404879)
(0.0025135667 0 -0.0011552986)
(0.0024888169 0 -0.0011641701)
(0.0024569876 0 -0.0011628119)
(0.0024166071 0 -0.001145144)
(0.0023662024 0 -0.0011028432)
(0.0023044486 0 -0.001025475)
(0.0022303952 0 -0.00090062869)
(0.0021436948 0 -0.00071465052)
(0.0020446567 0 -0.00045401485)
(0.0019344476 0 -0.0001083195)
(0.00181494 0 0.00032603324)
(0.0016884242 0 0.00084826803)
(0.0015572876 0 0.001449867)
(0.0014238975 0 0.0021143868)
(0.0012905726 0 0.0028186986)
(0.0011595358 0 0.0035363072)
(0.0010328851 0 0.0042381947)
(0.00091248806 0 0.0048978266)
(0.00079979773 0 0.0054928845)
(0.00069584322 0 0.0060061351)
(0.0006011547 0 0.0064258151)
(0.00051581483 0 0.0067449404)
(0.00043958636 0 0.0069576452)
(0.00037202621 0 0.0070609605)
(0.00031243644 0 0.0070499917)
(0.00026007203 0 0.006918157)
(0.00021416671 0 0.0066561562)
(0.00017393455 0 0.0062500325)
(0.00013841236 0 0.0056799369)
(0.00010650767 0 0.0049162695)
(7.6755732e-05 0 0.0039165907)
(4.7300988e-05 0 0.0026134065)
(1.5441646e-05 0 0.00090709083)
(0.0025827645 0 -0.0012720084)
(0.0025826618 0 -0.001275183)
(0.0025825016 0 -0.0012789345)
(0.0025822623 0 -0.0012833761)
(0.0025819143 0 -0.0012886241)
(0.0025814167 0 -0.0012948099)
(0.0025807141 0 -0.0013020787)
(0.0025797312 0 -0.0013105882)
(0.002578367 0 -0.0013205049)
(0.0025764857 0 -0.0013319959)
(0.0025739065 0 -0.0013452172)
(0.0025703895 0 -0.0013602944)
(0.0025656193 0 -0.001377293)
(0.0025591857 0 -0.0013961778)
(0.0025506015 0 -0.0014163727)
(0.002539242 0 -0.0014370107)
(0.0025242711 0 -0.0014568154)
(0.002504674 0 -0.0014737862)
(0.0024792484 0 -0.0014849096)
(0.0024466317 0 -0.0014857977)
(0.0024053746 0 -0.0014701774)
(0.0023540508 0 -0.0014292915)
(0.0022913986 0 -0.0013524336)
(0.0022165721 0 -0.0012269415)
(0.0021293493 0 -0.0010389223)
(0.0020301331 0 -0.00077584378)
(0.0019202706 0 -0.00042507049)
(0.0018016086 0 1.5329061e-05)
(0.0016764524 0 0.00054465585)
(0.001547072 0 0.0011543736)
(0.0014156685 0 0.0018280906)
(0.0012844086 0 0.0025436054)
(0.0011553097 0 0.0032733246)
(0.0010303665 0 0.0039893476)
(0.00091136431 0 0.0046641282)
(0.00079974934 0 0.0052756303)
(0.00069656241 0 0.0058063153)
(0.00060237796 0 0.0062436402)
(0.00051732718 0 0.0065806994)
(0.00044122285 0 0.0068114628)
(0.00037366588 0 0.0069322826)
(0.00031400309 0 0.0069380794)
(0.0002615172 0 0.0068222683)
(0.00021545787 0 0.006575356)
(0.00017504931 0 0.006183443)
(0.00013934137 0 0.0056266474)
(0.00010724003 0 0.004875379)
(7.728757e-05 0 0.0038870947)
(4.7617303e-05 0 0.0025946982)
(1.5522882e-05 0 0.00089958514)
(0.0025756309 0 -0.0015669908)
(0.0025755071 0 -0.0015703828)
(0.0025753208 0 -0.0015743928)
(0.0025750493 0 -0.0015791416)
(0.0025746613 0 -0.0015847545)
(0.0025741142 0 -0.0015913729)
(0.00257335 0 -0.0015991541)
(0.0025722905 0 -0.0016082702)
(0.0025708307 0 -0.0016189034)
(0.0025688298 0 -0.0016312398)
(0.0025661007 0 -0.0016454558)
(0.0025623954 0 -0.0016616992)
(0.002557388 0 -0.0016800574)
(0.0025506742 0 -0.0017005158)
(0.0025417657 0 -0.0017222908)
(0.0025299992 0 -0.0017447094)
(0.0025145276 0 -0.0017664792)
(0.0024943209 0 -0.0017855618)
(0.0024681662 0 -0.0017988816)
(0.002434703 0 -0.0018019778)
(0.0023925149 0 -0.0017883661)
(0.0023402303 0 -0.0017486494)
(0.0022766456 0 -0.0016720033)
(0.0022010301 0 -0.0015455301)
(0.0021132854 0 -0.0013549724)
(0.0020139568 0 -0.0010884862)
(0.0019044909 0 -0.00073300571)
(0.0017867541 0 -0.0002864584)
(0.0016630566 0 0.00024991541)
(0.0015355349 0 0.00086752343)
(0.0014062657 0 0.0015509547)
(0.0012771708 0 0.0022772067)
(0.0011500917 0 0.0030182872)
(0.0010269358 0 0.0037468026)
(0.00090942715 0 0.0044356281)
(0.00079898754 0 0.0050625007)
(0.00069666621 0 0.005609615)
(0.0006030768 0 0.0060640669)
(0.00051839828 0 0.0064178081)
(0.00044249509 0 0.0066659638)
(0.00037500693 0 0.0068037571)
(0.00031532708 0 0.0068258811)
(0.00026276754 0 0.0067257436)
(0.00021659488 0 0.0064936475)
(0.00017604524 0 0.0061157471)
(0.00014018146 0 0.0055721371)
(0.0001079096 0 0.0048332542)
(7.7778317e-05 0 0.0038564954)
(4.7911605e-05 0 0.0025752117)
(1.5599165e-05 0 0.00089190476)
(0.0025673246 0 -0.0018555915)
(0.0025671774 0 -0.0018591996)
(0.0025669622 0 -0.001863467)
(0.0025666551 0 -0.0018685218)
(0.0025662232 0 -0.0018744984)
(0.0025656216 0 -0.0018815487)
(0.0025647899 0 -0.0018898424)
(0.0025636464 0 -0.0018995654)
(0.0025620819 0 -0.0019109159)
(0.0025599504 0 -0.0019240986)
(0.0025570579 0 -0.0019393117)
(0.002553148 0 -0.001956729)
(0.0025478855 0 -0.0019764729)
(0.0025408755 0 -0.0019983043)
(0.0025316149 0 -0.0020216958)
(0.0025194095 0 -0.0020458955)
(0.0025033973 0 -0.0020696047)
(0.0024825331 0 -0.0020907522)
(0.002455593 0 -0.0021062079)
(0.0024212212 0 -0.002111477)
(0.0023780794 0 -0.0020990931)
(0.0023248057 0 -0.0020601435)
(0.00226026 0 -0.0019833828)
(0.002183847 0 -0.0018556426)
(0.0020955684 0 -0.0016628669)
(0.0019961852 0 -0.0013919651)
(0.0018871489 0 -0.0010321053)
(0.0017704391 0 -0.00057934878)
(0.0016483021 0 -3.597062e-05)
(0.0015228082 0 0.00059043063)
(0.0013957729 0 0.0012833823)
(0.0012688891 0 0.0020191146)
(0.0011439069 0 0.0027706048)
(0.0010226235 0 0.0035106137)
(0.000906699 0 0.0042124234)
(0.00079752765 0 0.004853626)
(0.00069616393 0 0.0054161826)
(0.00060325524 0 0.0058868645)
(0.00051903047 0 0.0062568383)
(0.00044340246 0 0.0065213137)
(0.00037604739 0 0.0066755303)
(0.00031640582 0 0.0067135251)
(0.00026382023 0 0.0066286934)
(0.00021757497 0 0.0064111228)
(0.00017691978 0 0.0060470197)
(0.00014093046 0 0.0055164665)
(0.00010851422 0 0.0047899367)
(7.8226365e-05 0 0.0038248207)
(4.8182882e-05 0 0.002554962)
(1.5670116e-05 0 0.00088404693)
(0.0025578784 0 -0.0021379422)
(0.0025577056 0 -0.0021417678)
(0.0025574589 0 -0.0021462934)
(0.0025571129 0 -0.0021516554)
(0.002556633 0 -0.0021579964)
(0.002555972 0 -0.002165479)
(0.0025550666 0 -0.0021742843)
(0.0025538316 0 -0.0021846123)
(0.0025521531 0 -0.0021966769)
(0.0025498793 0 -0.0022107005)
(0.0025468086 0 -0.0022269011)
(0.002542675 0 -0.0022454743)
(0.0025371451 0 -0.0022665821)
(0.0025298263 0 -0.002289796)
(0.0025201818 0 -0.0023147621)
(0.0025075017 0 -0.0023407117)
(0.0024909066 0 -0.0023663222)
(0.0024693351 0 -0.0023894805)
(0.0024415519 0 -0.0024069653)
(0.0024062575 0 -0.0024138911)
(0.0023621366 0 -0.0024023373)
(0.002307814 0 -0.0023637837)
(0.0022422745 0 -0.0022865896)
(0.0021650433 0 -0.0021571902)
(0.0020762602 0 -0.0019618438)
(0.0019768399 0 -0.0016870131)
(0.0018683045 0 -0.0013224517)
(0.0017527308 0 -0.00086336413)
(0.0016323504 0 -0.00031174143)
(0.0015089942 0 0.0003235424)
(0.0013842174 0 0.0010248313)
(0.0012596103 0 0.001769265)
(0.0011367952 0 0.0025302671)
(0.0010174613 0 0.0032808147)
(0.00090320389 0 0.0039945944)
(0.00079538654 0 0.0046491209)
(0.00069506637 0 0.0052261562)
(0.00060292143 0 0.0057121787)
(0.00051922702 0 0.0060979693)
(0.00044394281 0 0.0063776709)
(0.00037678574 0 0.0065477437)
(0.00031723691 0 0.0066011351)
(0.00026467253 0 0.0065312256)
(0.00021839526 0 0.0063278713)
(0.00017767013 0 0.0059773335)
(0.00014158583 0 0.0054596915)
(0.00010905209 0 0.0047454734)
(7.8630402e-05 0 0.003792105)
(4.843032e-05 0 0.0025339715)
(1.5735484e-05 0 0.00087601433)
(0.0025473308 0 -0.0024141715)
(0.0025471298 0 -0.0024182145)
(0.0025468484 0 -0.0024229986)
(0.0025464598 0 -0.0024286673)
(0.0025459272 0 -0.0024353727)
(0.0025452013 0 -0.0024432869)
(0.0025442154 0 -0.0024526032)
(0.0025428807 0 -0.0024635346)
(0.0025410783 0 -0.0024763105)
(0.0025386502 0 -0.0024911694)
(0.0025353872 0 -0.0025083459)
(0.0025310142 0 -0.0025280464)
(0.0025252004 0 -0.0025504216)
(0.0025175489 0 -0.0025750634)
(0.0025074915 0 -0.0026016062)
(0.0024943009 0 -0.002629284)
(0.0024770798 0 -0.00265676)
(0.0024547508 0 -0.0026818857)
(0.0024260812 0 -0.0027014238)
(0.002389843 0 -0.0027092818)
(0.0023446677 0 -0.0026987116)
(0.0022892479 0 -0.0026603929)
(0.0022226851 0 -0.0025824862)
(0.0021446437 0 -0.0024510039)
(0.002055412 0 -0.0022519357)
(0.0019560033 0 -0.0019728385)
(0.0018480676 0 -0.0016033698)
(0.0017338168 0 -0.0011371303)
(0.001615321 0 -0.00057688879)
(0.0014941122 0 6.617287e-05)
(0.0013716516 0 0.00077516618)
(0.0012493817 0 0.0015275694)
(0.0011287971 0 0.0022972387)
(0.0010114821 0 0.0030574155)
(0.00089896704 0 0.0037821973)
(0.00079258242 0 0.0044490779)
(0.00069338572 0 0.0050396533)
(0.00060208265 0 0.0055401412)
(0.00051899051 0 0.0059409644)
(0.0004441188 0 0.0062355481)
(0.00037722148 0 0.0064205349)
(0.00031781884 0 0.006488832)
(0.0002653224 0 0.0064334466)
(0.00021905351 0 0.006243983)
(0.00017829403 0 0.0059067632)
(0.00014214555 0 0.0054018728)
(0.00010952114 0 0.0046999076)
(7.898883e-05 0 0.0037583782)
(4.8652887e-05 0 0.0025122565)
(1.5794872e-05 0 0.00086780458)
(0.0025357095 0 -0.0026844053)
(0.0025354779 0 -0.0026886651)
(0.0025351589 0 -0.0026937075)
(0.002534724 0 -0.0026996833)
(0.0025341343 0 -0.0027067532)
(0.0025333379 0 -0.0027151001)
(0.0025322649 0 -0.0027249293)
(0.0025308221 0 -0.0027364679)
(0.0025288855 0 -0.0027499623)
(0.0025262903 0 -0.0027656719)
(0.0025228189 0 -0.0027838583)
(0.0025181861 0 -0.0028047714)
(0.0025120751 0 -0.0028283073)
(0.0025040699 0 -0.0028543051)
(0.0024935704 0 -0.0028823757)
(0.0024798321 0 -0.0029117412)
(0.0024619394 0 -0.0029410342)
(0.0024387976 0 -0.0029680388)
(0.002409225 0 -0.0029892104)
(0.0023719947 0 -0.0029981471)
(0.0023256941 0 -0.0029883438)
(0.0022691307 0 -0.0029500499)
(0.0022015229 0 -0.002871153)
(0.002122689 0 -0.0027371382)
(0.0020330532 0 -0.0025339031)
(0.0019337554 0 -0.0022495022)
(0.001826582 0 -0.0018741035)
(0.0017138191 0 -0.0014000026)
(0.001597224 0 -0.00083219741)
(0.0014782178 0 -0.00018186986)
(0.0013581289 0 0.00053424014)
(0.0012382515 0 0.0012939276)
(0.0011199542 0 0.0020714701)
(0.0010047199 0 0.0028404112)
(0.00089401494 0 0.003575273)
(0.00078913486 0 0.0042535747)
(0.00069113537 0 0.0048567795)
(0.0006007474 0 0.005370874)
(0.0005183275 0 0.0057859505)
(0.0004439332 0 0.0060951001)
(0.00037735261 0 0.0062940349)
(0.00031815033 0 0.0063767313)
(0.0002657679 0 0.00633546)
(0.0002195474 0 0.0061595453)
(0.00017878905 0 0.0058353809)
(0.0001426073 0 0.0053430675)
(0.00010991964 0 0.0046532873)
(7.9300314e-05 0 0.0037236754)
(4.884972e-05 0 0.0024898397)
(1.5848014e-05 0 0.0008594214)
(0.0025230443 0 -0.0029487663)
(0.0025227795 0 -0.0029532437)
(0.0025224198 0 -0.0029585447)
(0.0025219348 0 -0.0029648277)
(0.0025212834 0 -0.002972262)
(0.0025204109 0 -0.0029810408)
(0.0025192437 0 -0.002991381)
(0.0025176843 0 -0.0030035237)
(0.0025156027 0 -0.0030177304)
(0.0025128267 0 -0.0030342778)
(0.0025091288 0 -0.0030534466)
(0.0025042295 0 -0.0030755268)
(0.0024978135 0 -0.0031002462)
(0.0024894223 0 -0.0031275908)
(0.0024784455 0 -0.0031571732)
(0.0024641194 0 -0.0031881999)
(0.0024455082 0 -0.0032192838)
(0.0024215116 0 -0.0032482166)
(0.0023910158 0 -0.0032703529)
(0.0023527132 0 -0.0032804861)
(0.0023052325 0 -0.0032713315)
(0.0022474863 0 -0.0032328169)
(0.0021788683 0 -0.0031519217)
(0.0020992725 0 -0.003014925)
(0.0020092361 0 -0.0028077687)
(0.0019101333 0 -0.0025177618)
(0.0018039492 0 -0.002134666)
(0.0016927515 0 -0.0016529298)
(0.0015781134 0 -0.0010779229)
(0.0014613662 0 -0.00042079446)
(0.0013437021 0 0.00030188843)
(0.0012262676 0 0.00106822)
(0.001110308 0 0.0018528905)
(0.00099720911 0 0.0026297748)
(0.00088837484 0 0.0033738399)
(0.00078506428 0 0.0040626685)
(0.00068832982 0 0.0046776201)
(0.00059892523 0 0.0052044827)
(0.00051724374 0 0.0056330413)
(0.00044338758 0 0.0059561011)
(0.00037717989 0 0.00616836)
(0.00031823094 0 0.0062649449)
(0.00026600777 0 0.0062373669)
(0.0002198752 0 0.0060746454)
(0.0001791533 0 0.0057632607)
(0.00014296925 0 0.0052833372)
(0.0001102456 0 0.0046056572)
(7.9563272e-05 0 0.0036880286)
(4.901977e-05 0 0.002466739)
(1.5894507e-05 0 0.00085086341)
(0.0025093652 0 -0.0032073746)
(0.0025090646 0 -0.0032120694)
(0.002508661 0 -0.0032176286)
(0.0025081221 0 -0.0032242181)
(0.0025074044 0 -0.0032320158)
(0.00250645 0 -0.0032412248)
(0.0025051819 0 -0.0032520734)
(0.0025034976 0 -0.0032648151)
(0.0025012612 0 -0.003279725)
(0.002498293 0 -0.0032970925)
(0.0024943569 0 -0.0033172044)
(0.0024891767 0 -0.0033403365)
(0.0024824285 0 -0.0033663054)
(0.0024736252 0 -0.003395022)
(0.0024621382 0 -0.003426108)
(0.0024471827 0 -0.0034587635)
(0.0024278015 0 -0.0034915585)
(0.0024029355 0 -0.0035220705)
(0.0023714672 0 -0.0035453389)
(0.0023320178 0 -0.0035564315)
(0.0022833018 0 -0.0035477655)
(0.0022244091 0 -0.0035081361)
(0.0021547899 0 -0.0034247821)
(0.0020744267 0 -0.0032842561)
(0.0019840484 0 -0.0030728006)
(0.0018853005 0 -0.0027766756)
(0.0017802484 0 -0.0023853591)
(0.0016706651 0 -0.0018962019)
(0.0015580443 0 -0.0013143168)
(0.0014436129 0 -0.00065081156)
(0.0013284245 0 7.7941961e-05)
(0.0012134782 0 0.00085032007)
(0.0010999003 0 0.0016414193)
(0.00098898462 0 0.0024254684)
(0.00088207474 0 0.0031779048)
(0.00078039207 0 0.0038764037)
(0.00068498453 0 0.0045022494)
(0.00059662658 0 0.0050410627)
(0.00051574583 0 0.0054823434)
(0.00044248555 0 0.0058186672)
(0.00037670674 0 0.0060439298)
(0.00031806046 0 0.0061535804)
(0.00026604088 0 0.0061392654)
(0.00022003512 0 0.0059893677)
(0.00017938467 0 0.0056904737)
(0.00014322925 0 0.0052227392)
(0.00011049738 0 0.0045570668)
(7.9776386e-05 0 0.0036514749)
(4.916214e-05 0 0.0024429776)
(1.5934062e-05 0 0.00084213498)
(0.0024947003 0 -0.003460348)
(0.0024943612 0 -0.0034652609)
(0.0024939105 0 -0.0034710794)
(0.0024933137 0 -0.0034779766)
(0.0024925248 0 -0.0034861397)
(0.0024914827 0 -0.003495782)
(0.0024901063 0 -0.0035071442)
(0.0024882877 0 -0.0035204947)
(0.0024858845 0 -0.0035361267)
(0.0024827087 0 -0.0035543544)
(0.002478514 0 -0.0035755037)
(0.0024730405 0 -0.0035996138)
(0.0024659427 0 -0.0036267392)
(0.0024567018 0 -0.0036567676)
(0.0024446706 0 -0.0036893151)
(0.0024290442 0 -0.0037235704)
(0.0024088532 0 -0.0037581224)
(0.0023830996 0 -0.0037896227)
(0.0023505785 0 -0.0038141387)
(0.0023099249 0 -0.0038260275)
(0.0022599855 0 -0.0038171842)
(0.0021999393 0 -0.003775995)
(0.0021292625 0 -0.0036903062)
(0.0020481706 0 -0.0035458435)
(0.0019575714 0 -0.0033291698)
(0.0018593845 0 -0.0030255884)
(0.0017555202 0 -0.0026264852)
(0.0016476107 0 -0.0021301174)
(0.0015370713 0 -0.0015416407)
(0.0014250131 0 -0.00087214548)
(0.0013123485 0 -0.00013778348)
(0.001199931 0 0.00064008452)
(0.001088773 0 0.0014369573)
(0.00098008149 0 0.0022274341)
(0.00087514301 0 0.0029874538)
(0.00077514022 0 0.0036948051)
(0.00068111566 0 0.0043307231)
(0.00059386279 0 0.0048806928)
(0.00051384116 0 0.0053339493)
(0.00044123313 0 0.0056828985)
(0.00037593591 0 0.0059208563)
(0.00031763788 0 0.0060427394)
(0.00026586668 0 0.0060412509)
(0.00022002595 0 0.0059037961)
(0.00017948161 0 0.0056170927)
(0.00014338566 0 0.0051613356)
(0.00011067307 0 0.0045075622)
(7.9938071e-05 0 0.0036140473)
(4.927577e-05 0 0.0024185752)
(1.5966274e-05 0 0.00083323593)
(0.0024790805 0 -0.0037078021)
(0.0024787002 0 -0.0037129331)
(0.0024781989 0 -0.0037190107)