/*--------------------------------*- C++ -*----------------------------------*\
  =========                 |
  \\      /  F ield         | OpenFOAM: The Open Source CFD Toolbox
   \\    /   O peration     | Website:  https://openfoam.org
    \\  /    A nd           | Version:  8
     \\/     M anipulation  |
\*---------------------------------------------------------------------------*/
FoamFile
{
    version     2.0;
    format      ascii;
    class       volScalarField;
    location    "0.10999";
    object      Ma;
}
// * * * * * * * * * * * * * * * * * * * * * * * * * * * * * * * * * * * * * //

dimensions      [0 0 0 0 0 0 0];

internalField   nonuniform List<scalar> 
20000
(
0.73839819
0.86586277
0.94925178
1.021926
1.0911784
1.1604362
1.1943611
1.203612
1.1958194
1.199417
1.1939072
1.1947601
1.1900518
1.1886516
1.1837542
1.1801488
1.1741481
1.1679884
1.1598334
1.15039
1.1387219
1.1247659
1.107977
1.0879427
1.0644498
1.0373589
1.0071499
0.97473847
0.941736
0.90986444
0.88067172
0.855061
0.8333899
0.81549193
0.80103425
0.7895681
0.78058791
0.77365805
0.7683595
0.7643638
0.76131019
0.75894172
0.75715656
0.75580238
0.75437471
0.75272977
0.75159133
0.75126324
0.75216763
0.75217749
0.74386395
0.87157955
0.9551947
1.0280588
1.0974021
1.1665885
1.1964074
1.2049747
1.1969067
1.2005729
1.1948574
1.1956756
1.1908855
1.1894215
1.1844297
1.1807269
1.1746187
1.1683488
1.1601165
1.1505592
1.1387861
1.1246385
1.1076626
1.0874427
1.0637945
1.0365891
1.0063201
0.97391812
0.94097728
0.90920076
0.88010777
0.8545957
0.83300912
0.81520367
0.80083722
0.78945837
0.78053502
0.7736447
0.76836982
0.76438605
0.7613315
0.7589585
0.75717277
0.75581396
0.75425887
0.752408
0.75149946
0.75142468
0.75206007
0.75226705
0.7470331
0.87539242
0.95948533
1.0327712
1.1024114
1.1717453
1.1974778
1.2056357
1.1973022
1.2011047
1.1951753
1.1960673
1.1912054
1.1897272
1.1846866
1.180909
1.1747345
1.168322
1.159918
1.1501114
1.1380966
1.1236298
1.1063362
1.0858012
1.0618757
1.0344619
1.0040849
0.97171586
0.93893202
0.90740043
0.87857857
0.8533406
0.83201019
0.81443486
0.80026353
0.78905214
0.78025963
0.77346556
0.76825655
0.76431458
0.76127604
0.75891408
0.75715163
0.75578739
0.75401381
0.75225429
0.7514709
0.75142606
0.75205223
0.75229395
0.74994009
0.8789928
0.96351447
1.0371973
1.107128
1.1763678
1.1979911
1.2058413
1.1974449
1.2012499
1.1952866
1.1961703
1.1911095
1.1895727
1.1844363
1.1805228
1.1742152
1.1675623
1.1589092
1.1487637
1.1364216
1.1216226
1.1040157
1.0831569
1.0589425
1.0313035
1.0008276
0.96853472
0.93600253
0.90484907
0.87645317
0.85163448
0.83068106
0.81342921
0.79952507
0.7885339
0.7799081
0.77323521
0.76810977
0.7642216
0.76120752
0.75886246
0.75712664
0.75574567
0.75375904
0.75210663
0.75144074
0.7514589
0.75203698
0.75233583
0.75259457
0.88225258
0.96717096
1.0412595
1.1115335
1.1804558
1.1980142
1.2058698
1.1972036
1.2012033
1.1949297
1.1959515
1.190525
1.188861
1.1835676
1.1794399
1.1729364
1.1660199
1.1571355
1.1466844
1.134041
1.1188794
1.1009072
1.0796672
1.0551043
1.0271935
0.99660072
0.96440878
0.93219953
0.90153272
0.87369242
0.84942362
0.82896589
0.81213323
0.79857041
0.78785598
0.77944104
0.77292171
0.76790349
0.76408572
0.76110745
0.75878896
0.75708416
0.7556644
0.75350396
0.75199533
0.75141778
0.75147674
0.75203246
0.75237579
0.75494084
0.8850971
0.97038019
1.0448704
1.1155314
1.1838567
1.1974456
1.2050665
1.1962942
1.2001537
1.1939015
1.19462
1.1893486
1.1875486
1.1821071
1.1777817
1.1711052
1.1639314
1.1548072
1.1440314
1.1310597
1.1155082
1.0971364
1.0754743
1.050519
1.0223014
0.99158103
0.9595127
0.92768537
0.89759286
0.87041357
0.84680091
0.82693415
0.81059908
0.79744003
0.78705056
0.77888254
0.77254304
0.76765121
0.76391738
0.76098496
0.75870145
0.75702501
0.75553156
0.75327199
0.75189317
0.75139468
0.7514892
0.75203266
0.75242228
0.75680602
0.88746172
0.97313185
1.048037
1.1191601
1.1865069
1.1963423
1.2039377
1.1949801
1.1989111
1.1924792
1.1931971
1.1877428
1.1858002
1.1802232
1.1756942
1.1688417
1.1614028
1.1520318
1.1409196
1.1275988
1.1116231
1.0928049
1.0706707
1.0452732
1.0167137
0.98585683
0.9539355
0.92254262
0.89309898
0.86666836
0.84380144
0.82460812
0.80883973
0.79614024
0.78611988
0.77823294
0.77209855
0.76735161
0.76371493
0.76083856
0.75859933
0.75694579
0.75533618
0.75306758
0.75180655
0.75137233
0.75148867
0.75204392
0.75247024
0.75840496
0.88956117
0.97560736
1.0509319
1.1225739
1.1885776
1.1948804
1.2024564
1.1933174
1.1972608
1.1906871
1.1913199
1.1857817
1.1837066
1.1780018
1.1732674
1.1662394
1.1585256
1.1488908
1.1374169
1.1237141
1.1072794
1.0879743
1.065325
1.0394447
1.0105189
0.97952643
0.94778057
0.91687219
0.88814194
0.86253236
0.84048395
0.82203078
0.80688578
0.79469268
0.78507933
0.77750295
0.77159556
0.76700963
0.76348175
0.7606711
0.75848538
0.75684804
0.75508909
0.75288315
0.75172543
0.75135053
0.75148591
0.75206504
0.75251801
0.75981311
0.89144123
0.9778773
1.0536127
1.1258309
1.1901229
1.1929936
1.2006954
1.1913943
1.1953552
1.1886443
1.1892249
1.1835654
1.1813423
1.1755092
1.170558
1.1633453
1.1553398
1.1454211
1.1335614
1.1194462
1.1025182
1.082685
1.0594795
1.0330809
1.0037733
0.97265657
0.94112219
0.9107499
0.8827922
0.85806529
0.83689534
0.81923688
0.80476179
0.79311414
0.78394026
0.77670015
0.77103901
0.76662826
0.76321965
0.76048399
0.75836118
0.75673482
0.75481257
0.75270325
0.75164584
0.75132932
0.75148818
0.75209093
0.75256323
0.76108284
0.89316845
0.98001125
1.0561454
1.1289718
1.1911521
1.1909766
1.1987016
1.1892493
1.193213
1.1863806
1.1868799
1.1811161
1.1787377
1.1727753
1.1675957
1.1601877
1.1518725
1.141648
1.1293771
1.114818
1.0973636
1.0769645
1.0531666
1.0262225
0.99652914
0.9653113
0.93403256
0.90425023
0.87712007
0.85332825
0.83308502
0.81626402
0.80249524
0.79142424
0.78271654
0.77583417
0.77043541
0.76621171
0.76293138
0.76027953
0.75822872
0.75661017
0.75452339
0.75252215
0.75156389
0.75131077
0.7514952
0.75211904
0.75260476
0.76218833
0.89476316
0.98204064
1.0585724
1.1319972
1.1916507
1.1887282
1.1965067
1.1869184
1.190872
1.1839296
1.1843365
1.1784663
1.1759186
1.1698221
1.1643986
1.1567812
1.1481368
1.1375836
1.1248768
1.1098432
1.0918301
1.0708284
1.0464053
1.0188961
0.98882429
0.95754059
0.9265706
0.89743567
0.87118593
0.84837484
0.82909729
0.81314667
0.80011172
0.78964146
0.78142137
0.77491425
0.76979104
0.765764
0.76261953
0.76005995
0.75808933
0.75647682
0.75423424
0.75234164
0.75147765
0.75128797
0.75150568
0.7521487
0.75264176
0.76321024
0.89627517
0.98401122
1.0609438
1.1348838
1.1916564
1.1863237
1.1941387
1.1844236
1.1883481
1.1812989
1.1815998
1.1756257
1.1728957
1.1666592
1.1609758
1.1531341
1.1441411
1.1332371
1.1200702
1.1045314
1.0859277
1.0642882
1.0392116
1.0111264
0.98069553
0.94939296
0.91879308
0.89036584
0.86504716
0.84325624
0.82497481
0.80991841
0.79763657
0.78778447
0.78006833
0.77395005
0.76911251
0.76528949
0.76228692
0.75982768
0.75794346
0.75633408
0.75395449
0.75216785
0.75138503
0.75125685
0.75152468
0.75217994
0.75267407
0.764147
0.89771183
0.98594014
1.063294
1.1376009
1.1911738
1.1837547
1.191597
1.1817708
1.1856501
1.1785019
1.1786832
1.1726051
1.1696774
1.1632931
1.1573327
1.149251
1.1398909
1.1286131
1.1149615
1.0988859
1.0796596
1.0573482
1.0315938
1.002931
0.97217271
0.9409099
0.91074931
0.88309307
0.85875442
0.83801801
0.82075613
0.8066101
0.7950934
0.78587094
0.77867053
0.772951
0.76840636
0.76479247
0.76193635
0.7595849
0.7577901
0.75617596
0.75369031
0.75200665
0.7512905
0.75121249
0.7515599
0.75221217
0.75270199
0.7649881
0.89907255
0.98784207
1.0656464
1.1400955
1.1902009
1.181043
1.1889001
1.1789698
1.1827897
1.1755454
1.1755914
1.1694081
1.1662665
1.1597262
1.1534721
1.1451352
1.1353898
1.1237152
1.1095536
1.0929088
1.0730277
1.0500118
1.0235607
0.99432869
0.96328714
0.93213367
0.90248799
0.8756676
0.85235551
0.83270289
0.81647745
0.80325084
0.79250465
0.78391792
0.77724078
0.77192644
0.76767907
0.76427733
0.76157078
0.75933324
0.75762697
0.75599192
0.75344528
0.75186061
0.75120408
0.75115842
0.75160599
0.75224401
0.75272613
0.76578203
0.90038967
0.98974373
1.0680605
1.1423463
1.188775
1.1781966
1.1860508
1.1760246
1.1797683
1.172432
1.1723267
1.1660364
1.1626647
1.1559598
1.1493966
1.1407891
1.1306404
1.1185438
1.1038452
1.0865973
1.0660286
1.0422774
1.0151166
0.98533501
0.95406695
0.92310272
0.89405322
0.86813437
0.84589296
0.827349
0.81217119
0.79986686
0.78989085
0.78194128
0.7757912
0.77088525
0.76693685
0.76374833
0.7611934
0.75907376
0.75745134
0.7557722
0.75322037
0.75172985
0.75112976
0.75110899
0.75165762
0.75227444
0.75274728
0.76650585
0.90164602
0.99161808
1.0705445
1.1442822
1.1868869
1.1752135
1.1830478
1.172935
1.1765873
1.169163
1.1688896
1.1624907
1.1588729
1.1519954
1.1451083
1.1362145
1.1256434
1.1130978
1.0978334
1.0799478
1.0586587
1.034144
1.0062682
0.97596864
0.94454345
0.91385731
0.88548904
0.86053688
0.83940712
0.82199191
0.80786723
0.79648228
0.78727108
0.77995594
0.77433334
0.76983597
0.76618568
0.76320963
0.7608077
0.75880804
0.75726103
0.7555159
0.75301136
0.75161318
0.75107182
0.75107632
0.75170934
0.75230277
0.75276625
0.76712862
0.90280924
0.99345132
1.0731326
1.1458373
1.1845465
1.1720998
1.1798977
1.1697044
1.1732483
1.1657392
1.1652807
1.1587715
1.1548932
1.1478353
1.1406099
1.1314118
1.120397
1.1073727
1.0915122
1.072953
1.0509108
1.0256074
0.99701989
0.96624716
0.93474679
0.90443548
0.87683603
0.8529146
0.83293406
0.81666308
0.80359191
0.79311839
0.7846625
0.77797553
0.77287782
0.76878655
0.76543115
0.76266514
0.76041714
0.75853877
0.75705516
0.75522989
0.75281111
0.75151
0.75103092
0.75106916
0.75175806
0.75232889
0.75278371
0.76766863
0.90389661
0.9952452
1.0758623
1.1469641
1.1817731
1.168853
1.176599
1.1663322
1.16975
1.1621604
1.1615008
1.1548814
1.1507286
1.1434821
1.1359019
1.1263792
1.1148976
1.1013627
1.0848743
1.0656052
1.0427779
1.0166653
0.98737973
0.95619242
0.92471079
0.89487737
0.86813519
0.84530608
0.82650794
0.81139164
0.7993692
0.78979445
0.78208081
0.77601262
0.77143446
0.76774443
0.76467846
0.76211859
0.76002476
0.75826857
0.75683414
0.75491856
0.75261636
0.75142183
0.75100387
0.75107691
0.7518036
0.75235309
0.75280018
0.76811177
0.90488083
0.99696576
1.0787303
1.147593
1.1786266
1.1654675
1.1731498
1.1628178
1.1660934
1.1584295
1.157554
1.1508241
1.1463828
1.1389362
1.1309833
1.1211123
1.1091385
1.0950591
1.0779102
1.0578941
1.0342499
1.0073135
0.97735566
0.94582687
0.91446868
0.88522128
0.85942488
0.83774642
0.82015925
0.8062031
0.79522005
0.78652749
0.77953975
0.77407818
0.77001196
0.76671633
0.76393234
0.76157347
0.75963341
0.75799919
0.7565992
0.75458372
0.75242542
0.75134886
0.75099162
0.75109262
0.75184585
0.7523759
0.75281601
0.76849305
0.90579272
0.99862126
1.0817599
1.147701
1.1753967
1.1619472
1.1695537
1.1591666
1.162283
1.1545519
1.1534453
1.146603
1.1418563
1.1341955
1.1258494
1.1156047
1.103112
1.0884529
1.0706099
1.049809
1.025318
0.99755088
0.96696061
0.93517798
0.90405753
0.87550754
0.85074377
0.83026982
0.81391671
0.8011209
0.79116366
0.78333331
0.7770513
0.77218173
0.76861813
0.76570835
0.76319709
0.76103312
0.75924582
0.7577319
0.7563514
0.75422905
0.75223622
0.75128768
0.7509986
0.75111307
0.7518854
0.75239813
0.75283142
0.76880819
0.90663224
1.000193
1.0849392
1.1472642
1.172062
1.1582963
1.1658196
1.1553852
1.1583252
1.1505322
1.1491774
1.1422174
1.1371462
1.1292543
1.1204942
1.1098483
1.0968084
1.0815328
1.0629608
1.0413365
1.0159711
0.98737639
0.95620863
0.92427415
0.89351421
0.86577505
0.842128
0.82290735
0.80780567
0.79616538
0.78721686
0.78022606
0.77462501
0.77033084
0.76725986
0.76472569
0.76247653
0.76050063
0.75886434
0.75746669
0.75609016
0.75386319
0.75204824
0.75123077
0.75101442
0.75114646
0.75192495
0.75242085
0.75284657
0.76904499
0.90740463
1.0016826
1.0882443
1.1462743
1.1684797
1.154521
1.161955
1.1514819
1.1542244
1.1463714
1.144748
1.1376623
1.1322465
1.1241059
1.1149101
1.103834
1.0902173
1.0742871
1.0549499
1.0324634
1.0062004
0.97679337
0.94511941
0.91314891
0.88287931
0.85606453
0.83361384
0.81568885
0.80184957
0.79135509
0.78339484
0.77721802
0.77226824
0.76853191
0.76594361
0.76377278
0.76177406
0.75997891
0.75849106
0.75720172
0.75581064
0.75350077
0.75186552
0.75117455
0.75103032
0.75120029
0.75196844
0.75244476
0.75286162
0.769195
0.90810222
1.0031063
1.0916425
1.144736
1.1647126
1.1506181
1.1579534
1.1474526
1.1499774
1.1420648
1.1401504
1.1329305
1.1271505
1.1187428
1.1090893
1.0975513
1.0833265
1.0667021
1.0465617
1.0231743
0.99599684
0.96580683
0.93371506
0.90183743
0.87219373
0.84641562
0.82523539
0.80864081
0.79606835
0.78670581
0.77970978
0.77431696
0.76998618
0.76679107
0.76467557
0.76285332
0.7610926
0.75947063
0.75812775
0.7569341
0.75550388
0.75316071
0.75169643
0.75111556
0.75104664
0.75126877
0.75201672
0.75246977
0.75287678
0.76925836
0.90875049
1.0044793
1.0950372
1.142662
1.1608899
1.1465924
1.1538189
1.1432908
1.1455749
1.1376038
1.1353775
1.1280156
1.1218524
1.1131577
1.1030223
1.0909885
1.0761229
1.0587631
1.0377799
1.0134544
0.98535453
0.95442801
0.92202447
0.89038055
0.86150185
0.8368696
0.81702645
0.8017878
0.79047954
0.78223124
0.77617049
0.77152394
0.76778361
0.76511609
0.76346171
0.76197082
0.76043462
0.75897821
0.75777586
0.75666132
0.75516374
0.75285831
0.7515485
0.7510593
0.75105199
0.75135158
0.75206793
0.75249529
0.75289232
0.7692639
0.9093778
1.0058616
1.0983241
1.1400953
1.1568891
1.1424411
1.1495505
1.1389938
1.1410064
1.1329811
1.1304244
1.122913
1.1163468
1.1073418
1.0966982
1.0841323
1.0685917
1.0504532
1.0285854
1.0032876
0.974269
0.94267128
0.91007992
0.87882108
0.85084822
0.82746634
0.80901763
0.79515037
0.78509708
0.77794148
0.7727808
0.76883238
0.76566688
0.76351666
0.7623064
0.76112902
0.75980192
0.75850371
0.7574365
0.75638287
0.75479805
0.75259543
0.75142331
0.75101342
0.75105305
0.75144163
0.75211933
0.75252079
0.75290851
0.76913379
0.90993496
1.0072397
1.101414
1.1370618
1.152749
1.1381585
1.1451376
1.1345554
1.1362755
1.1281942
1.1252886
1.1176174
1.1106261
1.1012839
1.0901042
1.0769682
1.0607168
1.041754
1.0189587
0.99265971
0.96274102
0.93055829
0.8979204
0.86720679
0.84028011
0.81824579
0.8012366
0.78874616
0.77993311
0.77384325
0.76954024
0.76623479
0.76364654
0.76200194
0.76121061
0.76033196
0.75919575
0.75804888
0.75711056
0.75610051
0.75442493
0.75236402
0.75131953
0.7509809
0.75106696
0.751533
0.75216899
0.75254604
0.7529256
0.76888327
0.91045687
1.0086639
1.1042641
1.1336288
1.1484634
1.1337429
1.1405775
1.1299673
1.1313812
1.1232446
1.1199653
1.1121205
1.1046794
1.094971
1.0832266
1.0694806
1.0524801
1.0326443
1.008878
0.9815572
0.95077517
0.91811515
0.88558839
0.85558668
0.82984391
0.8092431
0.79370372
0.7825887
0.7749986
0.76993932
0.76644518
0.7637367
0.76173617
0.76057421
0.76017061
0.7595823
0.7586169
0.75761504
0.75679862
0.75581669
0.7540564
0.75215956
0.75123803
0.7509636
0.75108887
0.75161976
0.75221597
0.7525711
0.75294382
0.76851452
0.91093851
1.0101429
1.1067944
1.1298299
1.1440335
1.1291862
1.1358637
1.1252235
1.1263146
1.1181257
1.1144477
1.1064103
1.0984938
1.0883889
1.0760509
1.0616526
1.0438611
1.023101
0.99832204
0.96997093
0.93838348
0.90537643
0.873133
0.8440137
0.81958555
0.80048663
0.78643203
0.77669031
0.77030577
0.76623108
0.76349268
0.76136234
0.75994546
0.75922993
0.75918095
0.75887802
0.7580664
0.75720307
0.75650052
0.75553235
0.75369804
0.75197947
0.75117925
0.75096788
0.75111388
0.75169944
0.75226015
0.75259628
0.75296333
0.76803205
0.91137124
1.0116729
1.1089141
1.1257104
1.1394626
1.1244925
1.1309931
1.1203205
1.1210674
1.1128254
1.108724
1.1004737
1.0920562
1.0815236
1.068562
1.0534649
1.0348361
1.0130985
0.9872694
0.95789498
0.92558347
0.8923818
0.86060646
0.83254042
0.80954397
0.79199222
0.77942858
0.77106392
0.76586603
0.76272079
0.76068528
0.75913992
0.758269
0.75796742
0.75824282
0.75820965
0.75754608
0.75681315
0.75621468
0.75524458
0.75335311
0.75182119
0.75113604
0.75097888
0.75114179
0.75177282
0.75230225
0.75262204
0.75298426
0.76750159
0.91179797
1.0132838
1.1105644
1.1213544
1.1347517
1.1196543
1.1259602
1.1152519
1.1156351
1.1073275
1.1027783
1.0942982
1.0853549
1.074361
1.0607424
1.0448948
1.0253785
1.0026101
0.97570155
0.94533061
0.91240229
0.87917969
0.84806696
0.82121928
0.79974918
0.78376683
0.77270695
0.76572738
0.76168503
0.75941344
0.7580368
0.75708116
0.75667943
0.75678943
0.75737173
0.7575639
0.75705859
0.75644465
0.75593775
0.75494525
0.75302552
0.75168118
0.75110378
0.75099898
0.75117656
0.75184132
0.75234312
0.75264883
0.75300672
0.76694613
0.91221693
1.0149411
1.1116106
1.1167348
1.1298873
1.1146612
1.1207535
1.1100121
1.1100125
1.1016198
1.0965996
1.0878713
1.0783794
1.066885
1.0525705
1.0359155
1.0154584
0.99160843
0.96360218
0.93228491
0.89887377
0.86582372
0.83557327
0.81009532
0.79021726
0.77581859
0.76629823
0.76069754
0.75775914
0.75631225
0.75556193
0.7551634
0.75516384
0.75570069
0.75657482
0.75693706
0.75660554
0.75609625
0.75566123
0.75462263
0.75272214
0.75155735
0.75108061
0.75103001
0.75122466
0.75190597
0.75238359
0.75267705
0.75303076
0.7663945
0.91266172
1.016619
1.1119805
1.1118768
1.1248645
1.1095107
1.1153666
1.1045935
1.1041881
1.0956999
1.0901817
1.0811805
1.0711164
1.0590751
1.0440197
1.0264967
1.0050444
0.98006729
0.95096116
0.91877453
0.88504221
0.85237505
0.82318482
0.79920473
0.78095646
0.76818027
0.76024035
0.75598766
0.75408198
0.75341068
0.75325867
0.75335433
0.75374196
0.75470199
0.75584076
0.75633772
0.75618429
0.75576644
0.75537828
0.75426951
0.75245269
0.75144914
0.7510664
0.75108274
0.75128639
0.751968
0.75242444
0.75270702
0.75305641
0.76587205
0.91317912
1.0182841
1.1116834
1.1067792
1.1196802
1.1042
1.1097931
1.0989881
1.0981532
1.0895548
1.0835179
1.0742135
1.0635472
1.0509049
1.0350587
1.0166053
0.994104
0.96796216
0.9377738
0.90482413
0.87095886
0.8388972
0.81095449
0.78856972
0.77198116
0.76090687
0.75456214
0.75160295
0.75064113
0.75069252
0.75111096
0.75164954
0.75241966
0.75378976
0.75516412
0.75577762
0.75578688
0.75545439
0.75508775
0.75389874
0.75221846
0.75135712
0.75105893
0.75113435
0.75135849
0.75202931
0.75246628
0.75273882
0.75308368
0.76541301
0.91383998
1.0198966
1.1106916
1.101472
1.1143289
1.0987205
1.1040238
1.0931864
1.0918957
1.0831713
1.0765985
1.0669532
1.0556457
1.0423423
1.0256532
1.0062069
0.98260554
0.95527297
0.92404484
0.89047042
0.85668505
0.82545627
0.79892762
0.77820407
0.76333973
0.75405068
0.74928466
0.74751931
0.74741533
0.74815382
0.74910647
0.75005406
0.75119502
0.75295655
0.75454039
0.75527027
0.75540505
0.75515984
0.75480602
0.75353263
0.75201323
0.75128287
0.75105523
0.75117555
0.75143928
0.75209168
0.75250908
0.75277232
0.7531125
0.76504239
0.91465405
1.0213809
1.1090036
1.0959542
1.1087953
1.0930595
1.0980488
1.0871811
1.0854065
1.0765363
1.0694048
1.0593708
1.0473794
1.0333514
1.0157669
0.99526672
0.97051786
0.94198415
0.90978719
0.87575937
0.84228721
0.81211425
0.78713639
0.76812616
0.75510819
0.74765167
0.74439551
0.74368782
0.74440354
0.74579795
0.74723945
0.74856361
0.75006512
0.75219662
0.75396818
0.75481666
0.75503999
0.75488164
0.75452062
0.75318262
0.75183625
0.75122406
0.75105787
0.75120898
0.75152396
0.7521541
0.75255243
0.75280742
0.75314276
0.7647787
0.91562286
1.0226414
1.1065799
1.0902269
1.1030716
1.0872185
1.0918593
1.0809639
1.0786728
1.0696312
1.0619066
1.0514307
1.0387125
1.0238954
1.0053633
0.98374968
0.95781225
0.9280878
0.89502625
0.86074865
0.82783739
0.79892773
0.77560447
0.75839248
0.7473543
0.74173004
0.73983608
0.74009627
0.74161588
0.74361574
0.74550325
0.74717582
0.74902699
0.75150672
0.75344773
0.75440735
0.75470052
0.7546143
0.75423903
0.75285658
0.75168497
0.75117871
0.75106489
0.75123875
0.75160529
0.75221519
0.75259625
0.75284408
0.7531743
0.76460815
0.91679449
1.0236012
1.1034174
1.0843125
1.0971558
1.0811994
1.0854413
1.0745151
1.0716696
1.0624238
1.0540693
1.0430977
1.0296085
1.0139373
0.99440526
0.9716207
0.94446252
0.91358348
0.87979825
0.8455039
0.81340589
0.78594203
0.76435574
0.74909401
0.74012481
0.73625443
0.73555457
0.73676593
0.73904194
0.74159999
0.74389135
0.74588736
0.74807855
0.75088359
0.7529766
0.75403548
0.75439172
0.75435247
0.75395793
0.75256054
0.75155732
0.75114563
0.75107932
0.75126797
0.75168339
0.75227457
0.7526406
0.75288221
0.75320685
0.76449145
0.91823074
1.0242002
1.0995355
1.0782179
1.0910332
1.0749818
1.0787695
1.0678021
1.0643632
1.0548786
1.0458575
1.0343364
1.0200307
1.0034401
0.98285509
0.95884529
0.93044787
0.89848261
0.86415342
0.83010017
0.79906107
0.77319444
0.75344595
0.74031725
0.73344387
0.73114841
0.73155846
0.73369474
0.73667423
0.73974166
0.74239741
0.7446954
0.74721893
0.75032323
0.75255212
0.75369717
0.7541096
0.75409373
0.75367223
0.75230178
0.75145287
0.75111991
0.75110004
0.75129856
0.75175953
0.75233148
0.75268528
0.75292163
0.75324017
0.76442753
0.91994423
1.024317
1.0949213
1.071919
1.0846664
1.0685251
1.0718107
1.0607888
1.0567189
1.0469623
1.0372382
1.0251094
1.0099421
0.99236607
0.97067355
0.94538932
0.91575407
0.88280822
0.84815281
0.81461474
0.78486275
0.76071667
0.7429725
0.73212459
0.72727911
0.7263597
0.72786525
0.73087371
0.73450224
0.73803187
0.74101499
0.74359685
0.74644707
0.74982196
0.75217282
0.75339022
0.75384486
0.75383719
0.75337807
0.75208644
0.75137092
0.75110369
0.75113086
0.75133147
0.75183244
0.75238539
0.75272996
0.75296201
0.75327406
0.76436637
0.92191558
1.0238252
1.0895552
1.065378
1.0780103
1.0617931
1.0645282
1.0534437
1.0487092
1.0386448
1.0281777
1.0153784
0.99930454
0.98067628
0.95781935
0.93122097
0.900377
0.86659936
0.83187028
0.79912647
0.77086385
0.74855845
0.73304568
0.72455108
0.72154586
0.72189873
0.72447199
0.72829201
0.73251563
0.73646146
0.73973794
0.74258868
0.74575998
0.74937858
0.75183649
0.75311013
0.75359154
0.75358332
0.75308022
0.75190943
0.7513106
0.75109938
0.75116107
0.75136807
0.75190205
0.7524367
0.75277408
0.75300288
0.75330844
0.76423621
0.92410652
1.0226086
1.0834995
1.0585585
1.0710264
1.0547609
1.0568984
1.0457444
1.0403112
1.0298952
1.0186386
1.0051039
0.98807885
0.96832918
0.94424902
0.91631148
0.88432376
0.84990846
0.81538688
0.7837079
0.75710877
0.73681539
0.72375048
0.71757707
0.71617873
0.71778524
0.72136736
0.72593742
0.73070322
0.73502115
0.73855997
0.74166769
0.74515446
0.74899252
0.75153946
0.75285187
0.7533462
0.75333385
0.75279671
0.751759
0.75126718
0.75111391
0.75119913
0.75140895
0.75196941
0.75248583
0.75281688
0.75304323
0.75334338
0.76396966
0.92648445
1.0205968
1.0771003
1.0514414
1.0637037
1.0474112
1.0489057
1.0376687
1.0314965
1.0206763
1.0085834
0.994246
0.9762223
0.95527896
0.92991823
0.90063993
0.86761758
0.83280395
0.79878957
0.7684274
0.74364628
0.72561919
0.7151389
0.71111872
0.7111798
0.71401794
0.71853829
0.72379725
0.72905384
0.73370182
0.73747519
0.74083125
0.74462935
0.74866128
0.75127694
0.75261107
0.75310794
0.75309132
0.75253271
0.75163144
0.75123411
0.75113224
0.7512426
0.75145478
0.75203514
0.75253436
0.75285815
0.75308095
0.75337898
0.76356939
0.9289838
1.0177346
1.0707389
1.0440459
1.0560388
1.0397342
1.0405252
1.0291821
1.0222251
1.0109443
0.99797928
0.98276358
0.96368594
0.94147457
0.91478375
0.88419641
0.85029823
0.81536595
0.78216352
0.75334687
0.73056153
0.71508342
0.7072184
0.70508682
0.7065756
0.71058312
0.71597011
0.72185821
0.72755607
0.73249445
0.73647799
0.74007648
0.74418226
0.74838049
0.75104375
0.75238464
0.7528774
0.7528587
0.75229564
0.75152447
0.75120943
0.75115104
0.7512884
0.7515071
0.7520997
0.75258315
0.75289778
0.75311514
0.75341485
0.76311837
0.93153774
1.014047
1.0637484
1.0363751
1.0480015
1.0316972
1.0317178
1.0202405
1.0124542
1.0006553
0.98679093
0.97061115
0.95041175
0.92685989
0.89880791
0.86698727
0.83242543
0.79768626
0.76559251
0.73852797
0.7179936
0.7052848
0.69991923
0.69946405
0.70237036
0.70746537
0.71364762
0.72010698
0.72619875
0.73139069
0.73556375
0.73940021
0.74380617
0.74814411
0.75083495
0.75217068
0.75265583
0.75263855
0.75208276
0.75143699
0.75118948
0.75117241
0.75132994
0.75156904
0.75216334
0.75263144
0.7529355
0.75314733
0.75344983
0.76258845
0.93394222
1.0095089
1.0562008
1.0283863
1.0395322
1.0232516
1.0224404
1.0108039
1.0021487
0.98977518
0.97496504
0.95773185
0.93633374
0.91137721
0.88196273
0.84903707
0.81407522
0.77986042
0.74915527
0.72404636
0.70609292
0.69626142
0.6931262
0.69428549
0.69854802
0.70464713
0.71155495
0.71853009
0.72497085
0.73038271
0.73472844
0.73879847
0.74348833
0.74794531
0.75064632
0.7519679
0.7524439
0.75243216
0.75189457
0.75136547
0.75117621
0.75120141
0.75136649
0.75163873
0.75222624
0.75267891
0.75297143
0.75317875
0.75348246
0.7620311
0.93610499
1.004193
1.048203
1.0200201
1.0306013
1.0143602
1.0126644
1.0008355
0.99127237
0.97825903
0.96243853
0.94405593
0.9213803
0.894973
0.86423676
0.83039322
0.79534056
0.76198657
0.73293081
0.71003463
0.69497398
0.68797004
0.68679285
0.68956388
0.6950908
0.7021102
0.70967625
0.71711431
0.72386175
0.7294632
0.73396795
0.73826734
0.74321915
0.74777829
0.75047428
0.75177504
0.7522414
0.75223884
0.75173174
0.75130893
0.75116988
0.75122544
0.75140196
0.75171119
0.75228868
0.75272545
0.75300582
0.75320991
0.75351334
0.76128669
0.93804453
0.99812705
1.039768
1.0112629
1.0211821
1.0050001
1.0023565
0.9902941
0.97977543
0.96603841
0.94913791
0.92950359
0.90547818
0.87760305
0.84563829
0.81112402
0.77632428
0.74415991
0.71700091
0.69666637
0.68469778
0.68029433
0.68095176
0.68528285
0.69197784
0.69983548
0.70799547
0.71584654
0.72286122
0.72862477
0.73327601
0.73780128
0.74300945
0.74763963
0.75031579
0.7515906
0.75204768
0.75205699
0.75159607
0.75126429
0.75117091
0.75125109
0.75143731
0.75178521
0.75235079
0.75277096
0.75303928
0.75324135
0.75354244
0.76029811
0.93972064
0.99131665
1.0307946
1.0021004
1.011251
0.99513459
0.99147662
0.97912624
0.96759677
0.95302478
0.93496988
0.91399078
0.88855936
0.8592398
0.82620127
0.79131996
0.75713783
0.72647919
0.7014861
0.68409587
0.67526298
0.67315538
0.67562385
0.68142298
0.68918768
0.69780399
0.70649703
0.71471421
0.72195955
0.72785995
0.73264418
0.73739003
0.74287907
0.74752593
0.75016839
0.75141353
0.75186254
0.7518856
0.75148711
0.75123062
0.75117716
0.75127891
0.75147294
0.75186144
0.75241253
0.75281553
0.75307235
0.75327323
0.75357017
0.75888798
0.94106881
0.98381895
1.0212811
0.99249435
1.000755
0.98470939
0.97996461
0.96725851
0.95465191
0.93911474
0.9198368
0.89743469
0.87056621
0.83987657
0.80598412
0.77108739
0.7378921
0.70904386
0.68656493
0.67242605
0.66657569
0.66655575
0.67080377
0.67795995
0.68669762
0.69599661
0.70516552
0.7137051
0.72114726
0.7271611
0.73206444
0.73702137
0.74281753
0.74743208
0.75003032
0.75124408
0.7516866
0.75172734
0.75139925
0.75120172
0.7511893
0.75131022
0.75151006
0.751938
0.75247393
0.7528593
0.7531055
0.75330559
0.75359675
0.75686499
0.9420587
0.97564299
1.0111767
0.98240391
0.98963084
0.97365223
0.9677402
0.95459161
0.94082887
0.92421169
0.90364245
0.87975807
0.85145658
0.81953211
0.78507146
0.75054637
0.71870192
0.69196887
0.67243786
0.66170036
0.6585204
0.6605314
0.66646892
0.67486859
0.68448487
0.69439468
0.70398615
0.71280753
0.72041518
0.72652111
0.73153445
0.73670345
0.74279671
0.74735273
0.74990031
0.75108318
0.75152117
0.75158471
0.75132489
0.75118194
0.75121256
0.75134567
0.75155022
0.75201417
0.75253499
0.75290244
0.75313904
0.75333831
0.75362226
0.75408373
0.94260689
0.96677968
1.0004162
0.97175674
0.97779193
0.96186512
0.95470567
0.94101173
0.92601265
0.90821426
0.88629602
0.86089397
0.83120908
0.7982529
0.76357038
0.72982362
0.69968846
0.67543226
0.65925622
0.65185916
0.65106302
0.65508926
0.66259192
0.67212176
0.68252639
0.69297975
0.70294446
0.71201016
0.71975436
0.72593397
0.73105856
0.73647349
0.74280003
0.74728302
0.74977691
0.75093146
0.75136798
0.75145761
0.75126304
0.75117207
0.75123303
0.7513837
0.75159607
0.75209059
0.75259528
0.75294504
0.75317314
0.75337125
0.75364669
0.75032304
0.94248634
0.95711884
0.98888961
0.96044225
0.96513205
0.9492309
0.94074928
0.92639742
0.91009927
0.89102263
0.86771111
0.84078889
0.80982733
0.77611593
0.74160946
0.7090546
0.68098783
0.65966633
0.64710285
0.64276767
0.64424828
0.65020448
0.65914329
0.66969231
0.68079977
0.69173423
0.70202675
0.71130218
0.71915652
0.72539561
0.73064099
0.73633585
0.74281565
0.74721839
0.74965851
0.75078927
0.75122961
0.75134598
0.75121265
0.75116852
0.75125612
0.75142054
0.75165133
0.75216737
0.75265461
0.75298712
0.75320786
0.75340418
0.75367
0.74537716
0.94193064
0.94650233
0.97648804
0.94835974
0.95153921
0.93562271
0.92574356
0.9106183
0.89299812
0.87254532
0.84780702
0.81940582
0.78734412
0.75322646
0.71933149
0.68838434
0.66277682
0.64487077
0.63596096
0.63435706
0.63809407
0.64584721
0.65609115
0.6675526
0.67928293
0.69064101
0.70121983
0.71067326
0.71861412
0.7249029
0.73027885
0.73625025
0.74283378
0.74715541
0.74954468
0.75065789
0.75110811
0.75124975
0.75117182
0.75117608
0.75128041
0.75145653
0.7517158
0.75224409
0.75271308
0.75302894
0.75324316
0.75343676
0.75369212
0.73922854
0.94069929
0.9349065
0.96310212
0.93538971
0.9368947
0.920903
0.90956621
0.89356402
0.87460316
0.85268994
0.82650997
0.79673041
0.76382652
0.72971843
0.69689251
0.66797354
0.64529895
0.63117761
0.62570816
0.62666196
0.63258022
0.64198305
0.65340314
0.66567574
0.67795481
0.68968399
0.70051122
0.71011368
0.71812043
0.72445301
0.72996808
0.73619698
0.74285121
0.74709288
0.74943676
0.75053886
0.75100254
0.75116839
0.75114167
0.75118618
0.75130755
0.75149388
0.75178684
0.7523203
0.75277052
0.75307075
0.75327883
0.75346872
0.75371307
0.73186024
0.93859804
0.92227319
0.94859754
0.92139179
0.9210739
0.90493524
0.89210755
0.87513238
0.85478935
0.83135772
0.80376051
0.77277916
0.73937734
0.70574854
0.674461
0.6480079
0.62880736
0.6186145
0.61624796
0.6197101
0.62767361
0.63857475
0.65104605
0.66403502
0.6767949
0.68884759
0.69988893
0.70961424
0.71766944
0.72404314
0.7297042
0.73617327
0.74286855
0.74703134
0.74933659
0.75043266
0.75091
0.75109968
0.75112275
0.75120226
0.75133888
0.7515331
0.75186338
0.75239568
0.75282664
0.7531124
0.75331462
0.75349996
0.75373283
0.72331312
0.93539448
0.90854235
0.93283231
0.90622226
0.90396117
0.88759969
0.87326175
0.85518937
0.83343275
0.80845404
0.77952138
0.74760687
0.71413605
0.68149449
0.6522274
0.62874776
0.61348915