/*--------------------------------*- C++ -*----------------------------------*\
  =========                 |
  \\      /  F ield         | OpenFOAM: The Open Source CFD Toolbox
   \\    /   O peration     | Website:  https://openfoam.org
    \\  /    A nd           | Version:  8
     \\/     M anipulation  |
\*---------------------------------------------------------------------------*/
FoamFile
{
    version     2.0;
    format      ascii;
    class       surfaceScalarField;
    location    "0.10999";
    object      meshPhi;
}
// * * * * * * * * * * * * * * * * * * * * * * * * * * * * * * * * * * * * * //

dimensions      [0 3 -1 0 0 0 0];

internalField   nonuniform List<scalar> 
39600
(
-2.7780525e-06
-1.7155888e-07
1.704559e-07
-2.7793517e-06
-2.0687939e-07
2.0946972e-07
-2.7805635e-06
-2.4791036e-07
2.5089239e-07
-2.7819293e-06
-2.9699081e-07
3.0053025e-07
-2.7834403e-06
-3.5576999e-07
3.5997651e-07
-2.7852142e-06
-4.2616275e-07
4.3115926e-07
-2.7872901e-06
-5.1044302e-07
5.1638256e-07
-2.7897814e-06
-6.1131831e-07
6.1839462e-07
-2.7929998e-06
-7.320208e-07
7.4046818e-07
-2.7971627e-06
-8.7639018e-07
8.8649022e-07
-2.8025569e-06
-1.048977e-06
1.0610707e-06
-2.809149e-06
-1.2551719e-06
1.2696586e-06
-2.8168532e-06
-1.5013053e-06
1.5186608e-06
-2.8256549e-06
-1.7947765e-06
1.8155554e-06
-2.8379164e-06
-2.1440692e-06
2.168966e-06
-2.8522771e-06
-2.55874e-06
2.5886203e-06
-2.8818778e-06
-3.049264e-06
3.0850837e-06
-2.9320525e-06
-3.6261834e-06
3.6691804e-06
-2.9853756e-06
-4.3015088e-06
4.353341e-06
-3.0404245e-06
-5.0904401e-06
5.1530055e-06
-3.0990709e-06
-6.009511e-06
6.0850236e-06
-3.1648111e-06
-7.0785375e-06
7.1700698e-06
-3.2971433e-06
-8.3000414e-06
8.411391e-06
-3.5777794e-06
-9.6616314e-06
9.7991045e-06
-4.0566459e-06
-1.1114115e-05
1.1281066e-05
-4.6076831e-06
-1.2648431e-05
1.2850181e-05
-5.1463227e-06
-1.4262269e-05
1.4507341e-05
-5.4395557e-06
-1.6095607e-05
1.6383553e-05
-5.5905522e-06
-1.8328923e-05
1.865581e-05
-5.4658202e-06
-2.0923676e-05
2.1293192e-05
-5.0970277e-06
-2.3811201e-05
2.4215e-05
-4.8785805e-06
-2.6353406e-05
2.6756271e-05
-4.2732931e-06
-2.8292916e-05
2.8602866e-05
-3.4639828e-06
-3.0126774e-05
3.0324965e-05
-1.9752535e-06
-3.232277e-05
3.2383712e-05
-7.662681e-07
-3.4397575e-05
3.4260407e-05
1.4877214e-06
-3.6072327e-05
3.5664801e-05
5.41396e-06
-3.6884806e-05
3.6021882e-05
1.3062327e-05
-3.5943646e-05
3.4223394e-05
2.6132222e-05
-3.1955431e-05
2.8522165e-05
4.1006497e-05
-2.4566071e-05
1.8837698e-05
5.6342279e-05
-1.5962416e-05
8.0784528e-06
7.2750035e-05
-6.852241e-06
-3.1178304e-06
9.8626475e-05
5.7322443e-06
-1.8552144e-05
0.00013276835
2.5397345e-05
-4.2014656e-05
0.00017983162
5.3099201e-05
-7.445678e-05
0.00022709218
8.3401366e-05
-0.00010871875
0.00027868041
0.00010772674
-0.00013549284
0.00023050373
0.00010869392
-0.0001313423
5.361275e-05
-5.9902388e-05
-2.2337636e-06
-1.7016471e-07
-2.2335613e-06
-2.0519631e-07
-2.2329577e-06
-2.4581726e-07
-2.232272e-06
-2.9447515e-07
-2.2317614e-06
-3.5275524e-07
-2.2315737e-06
-4.2254105e-07
-2.2319747e-06
-5.0610679e-07
-2.2330059e-06
-6.0613545e-07
-2.2348744e-06
-7.2585155e-07
-2.2375043e-06
-8.6906651e-07
-2.2409698e-06
-1.0403139e-06
-2.2448224e-06
-1.2449358e-06
-2.2492762e-06
-1.4892115e-06
-2.2543619e-06
-1.7804374e-06
-2.2630559e-06
-2.1269052e-06
-2.2754893e-06
-2.5380996e-06
-2.2991164e-06
-3.0245041e-06
-2.3372245e-06
-3.5969366e-06
-2.3771328e-06
-4.2675303e-06
-2.4176662e-06
-5.0505049e-06
-2.4613349e-06
-5.9620388e-06
-2.513726e-06
-7.0197936e-06
-2.6262944e-06
-8.2270595e-06
-2.8699089e-06
-9.5706417e-06
-3.2815394e-06
-1.1007142e-05
-3.769885e-06
-1.2522149e-05
-4.2822975e-06
-1.4102822e-05
-4.5621485e-06
-1.5909531e-05
-4.7110208e-06
-1.8118608e-05
-4.5986788e-06
-2.0694268e-05
-4.2827779e-06
-2.3567928e-05
-4.0760164e-06
-2.6129913e-05
-3.494116e-06
-2.8159602e-05
-2.7540586e-06
-3.0129007e-05
-1.335615e-06
-3.2482516e-05
-1.8502012e-07
-3.4756766e-05
1.998682e-06
-3.6713074e-05
5.8831896e-06
-3.798465e-05
1.3172437e-05
-3.7869335e-05
2.577284e-05
-3.5451863e-05
4.0393071e-05
-3.0241846e-05
5.5721243e-05
-2.3901806e-05
7.1776469e-05
-1.7077651e-05
9.7711496e-05
-7.3415386e-06
0.0001312206
8.4998022e-06
0.00017825767
3.1418153e-05
0.00022418766
5.7618498e-05
0.0002723693
7.9558583e-05
0.00022740819
8.4789342e-05
4.6046443e-05
-1.7325521e-06
-1.6931239e-07
-1.739872e-06
-2.0411384e-07
-1.7469672e-06
-2.4444675e-07
-1.7525166e-06
-2.9275732e-07
-1.7561902e-06
-3.5063566e-07
-1.7583822e-06
-4.1996834e-07
-1.7591942e-06
-5.0301977e-07
-1.7587318e-06
-6.0247761e-07
-1.756873e-06
-7.2156353e-07
-1.7536577e-06
-8.6409658e-07
-1.7493407e-06
-1.0346105e-06
-1.7439178e-06
-1.2384272e-06
-1.7386482e-06
-1.4817966e-06
-1.734446e-06
-1.7719056e-06
-1.7340397e-06
-2.1169767e-06
-1.7392893e-06
-2.5265098e-06
-1.752619e-06
-3.0110139e-06
-1.7730404e-06
-3.5816618e-06
-1.7945689e-06
-4.2503812e-06
-1.8171463e-06
-5.0307092e-06
-1.8428534e-06
-5.9386241e-06
-1.8802896e-06
-6.9900726e-06
-1.9712791e-06
-8.1891697e-06
-2.1763709e-06
-9.5219467e-06
-2.5250181e-06
-1.0950354e-05
-2.9585317e-06
-1.2454707e-05
-3.44009e-06
-1.4012697e-05
-3.7019367e-06
-1.5801832e-05
-3.8345145e-06
-1.7998486e-05
-3.7175432e-06
-2.0569578e-05
-3.4337597e-06
-2.3442792e-05
-3.2215697e-06
-2.6041291e-05
-2.6574287e-06
-2.8174012e-05
-1.9560956e-06
-3.0287053e-05
-5.9401648e-07
-3.2803045e-05
4.8758419e-07
-3.5276753e-05
2.6103141e-06
-3.7511851e-05
6.3963723e-06
-3.9239793e-05
1.3436227e-05
-3.9924443e-05
2.5563289e-05
-3.8970703e-05
4.0009415e-05
-3.585783e-05
5.4972956e-05
-3.1773045e-05
7.0797581e-05
-2.7195981e-05
9.6548468e-05
-2.0267498e-05
0.00012962781
-8.2373058e-06
0.00017618884
9.9835226e-06
0.00022114658
3.2141234e-05
0.00026566777
5.1944495e-05
0.00022346331
6.1149829e-05
3.807327e-05
-1.2548041e-06
-1.6911354e-07
-1.2623342e-06
-2.0394434e-07
-1.2701501e-06
-2.443119e-07
-1.2772487e-06
-2.9265589e-07
-1.2829713e-06
-3.5054605e-07
-1.2874783e-06
-4.1986e-07
-1.2903249e-06
-5.0284555e-07
-1.2911182e-06
-6.0219753e-07
-1.2892357e-06
-7.2113025e-07
-1.2842768e-06
-8.6346695e-07
-1.2764118e-06
-1.0337578e-06
-1.2656622e-06
-1.2373333e-06
-1.2536054e-06
-1.480462e-06
-1.2416521e-06
-1.7703287e-06
-1.2321586e-06
-2.1151687e-06
-1.2276593e-06
-2.5245492e-06
-1.2287214e-06
-3.0091663e-06
-1.2331116e-06
-3.5803157e-06
-1.2380964e-06
-4.249625e-06
-1.2432497e-06
-5.0305134e-06
-1.2515475e-06
-5.9386206e-06
-1.2730072e-06
-6.9886291e-06
-1.3422204e-06
-8.1852543e-06
-1.5118142e-06
-9.5137073e-06
-1.8060482e-06
-1.0940517e-05
-2.1917431e-06
-1.2440946e-05
-2.6385778e-06
-1.3986957e-05
-2.8781666e-06
-1.5771115e-05
-2.9886843e-06
-1.7970128e-05
-2.864236e-06
-2.055027e-05
-2.600394e-06
-2.3436182e-05
-2.3766981e-06
-2.6087536e-05
-1.8259865e-06
-2.8338525e-05
-1.1467631e-06
-3.060468e-05
1.6026291e-07
-3.3288189e-05
1.1925883e-06
-3.5964159e-05
3.2506087e-06
-3.8476305e-05
6.9305713e-06
-4.0653969e-05
1.3751103e-05
-4.2114575e-05
2.5477317e-05
-4.2554102e-05
3.9688092e-05
-4.1472153e-05
5.4266022e-05
-3.9598675e-05
6.9885221e-05
-3.72078e-05
9.5376659e-05
-3.3050467e-05
0.00012803594
-2.4812923e-05
0.00017407157
-1.121436e-05
0.00021826295
6.9498331e-06
0.00025972663
2.4761079e-05
0.00021976296
3.7667233e-05
2.9716851e-05
-7.9923524e-07
-1.6947691e-07
-7.9955891e-07
-2.0439752e-07
-8.0078424e-07
-2.448721e-07
-8.0329446e-07
-2.9335297e-07
-8.0641593e-07
-3.5141152e-07
-8.0985396e-07
-4.2093921e-07
-8.1263643e-07
-5.041935e-07
-8.1404913e-07
-6.0387481e-07
-8.1324242e-07
-7.2320213e-07
-8.0934332e-07
-8.6600599e-07
-8.0241077e-07
-1.036831e-06
-7.917787e-07
-1.2410148e-06
-7.7871574e-07
-1.4848464e-06
-7.6361598e-07
-1.7755465e-06
-7.4888539e-07
-2.1214201e-06
-7.3653073e-07
-2.5321783e-06
-7.2704621e-07
-3.0186951e-06
-7.1907564e-07
-3.5922792e-06
-7.0988851e-07
-4.2646193e-06
-6.9919825e-07
-5.0491704e-06
-6.9092373e-07
-5.9612134e-06
-6.9562826e-07
-7.0145258e-06
-7.4326228e-07
-8.2139629e-06
-8.8034176e-07
-9.5439825e-06
-1.1270209e-06
-1.0975356e-05
-1.4706614e-06
-1.2479101e-05
-1.8791045e-06
-1.4023789e-05
-2.0889464e-06
-1.5816255e-05
-2.1732346e-06
-1.8032588e-05
-2.0395607e-06
-2.0635054e-05
-1.7871861e-06
-2.354594e-05
-1.5483166e-06
-2.6264678e-05
-1.0060742e-06
-2.8648288e-05
-3.4000787e-07
-3.1078171e-05
9.1580389e-07
-3.3935174e-05
1.9136315e-06
-3.6817057e-05
3.9112418e-06
-3.9607507e-05
7.4867538e-06
-4.2227689e-05
1.4108325e-05
-4.4440969e-05
2.5469904e-05
-4.6214032e-05
3.9402434e-05
-4.709342e-05
5.3608471e-05
-4.7368759e-05
6.9044446e-05
-4.7108486e-05
9.4227909e-05
-4.5683097e-05
0.00012646159
-4.1197025e-05
0.00017193947
-3.2152252e-05
0.0002155348
-1.7969678e-05
0.00025446873
-2.0427041e-06
0.00021629404
1.4359114e-05
2.1052796e-05
-3.7907885e-07
-1.7039337e-07
-3.7900028e-07
-2.0549108e-07
-3.7941646e-07
-2.4617422e-07
-3.8024907e-07
-2.9490926e-07
-3.8063256e-07
-3.5328848e-07
-3.8040869e-07
-4.2322296e-07
-3.7879094e-07
-5.0699427e-07
-3.7553433e-07
-6.073268e-07
-3.7022674e-07
-7.2746439e-07
-3.6239036e-07
-8.7126026e-07
-3.5233606e-07
-1.0432802e-06
-3.392537e-07
-1.2488836e-06
-3.2412065e-07
-1.4943809e-06
-3.062797e-07
-1.7870409e-06
-2.8690179e-07
-2.1352708e-06
-2.6788189e-07
-2.5489423e-06
-2.5000919e-07
-3.0390475e-06
-2.322304e-07
-3.6169998e-06
-2.1123094e-07
-4.2948013e-06
-1.8622e-07
-5.0860045e-06
-1.6208747e-07
-6.0055654e-06
-1.4946695e-07
-7.0667401e-06
-1.7551715e-07
-8.2741281e-06
-2.8248285e-07
-9.6113939e-06
-4.8792944e-07
-1.1052426e-05
-7.9378675e-07
-1.2564437e-05
-1.1606661e-06
-1.4117684e-05
-1.3345451e-06
-1.5933076e-05
-1.3900726e-06
-1.8181982e-05
-1.2459706e-06
-2.0819057e-05
-9.9904698e-07
-2.3767473e-05
-7.4264552e-07
-2.6567243e-05
-2.0415437e-07
-2.9096293e-05
4.5415343e-07
-3.1699174e-05
1.6645099e-06
-3.4736118e-05
2.6387403e-06
-3.782947e-05
4.5842532e-06
-4.0901073e-05
8.0612769e-06
-4.3958827e-05
1.4499208e-05
-4.6904757e-05
2.551513e-05
-4.9960053e-05
3.9148105e-05
-5.2727141e-05
5.3006483e-05
-5.5081801e-05
6.8276429e-05
-5.6900593e-05
9.3124228e-05
-5.8170039e-05
0.00012492424
-5.7382672e-05
0.00016982111
-5.2819477e-05
0.00021295967
-4.2613317e-05
0.00024983839
-2.8545747e-05
0.00021305452
-8.8568102e-06
1.2096023e-05
1.5024211e-08
-1.7186884e-07
1.6326267e-08
-2.072914e-07
1.7778428e-08
-2.4836815e-07
1.9473953e-08
-2.975859e-07
2.2328113e-08
-3.5655398e-07
2.630274e-08
-4.2720135e-07
3.1988076e-08
-5.1183066e-07
3.9356535e-08
-6.1319085e-07
4.8539213e-08
-7.3455176e-07
5.9850552e-08
-8.7980087e-07
7.2856206e-08
-1.053541e-06
8.8518582e-08
-1.2611852e-06
1.060882e-07
-1.5091114e-06
1.2691911e-07
-1.8046897e-06
1.5079468e-07
-2.15646e-06
1.759872e-07
-2.5744341e-06
2.0104953e-07
-3.0697704e-06
2.2726396e-07
-3.6541821e-06
2.590681e-07
-4.3399535e-06
2.9741786e-07
-5.1407016e-06
3.3667163e-07
-6.0712082e-06
3.662493e-07
-7.1442887e-06
3.6117064e-07
-8.3643124e-06
2.8240935e-07
-9.7142584e-06
1.126414e-07
-1.1169906e-05
-1.5885701e-07
-1.2695505e-05
-4.8123625e-07
-1.4267004e-05
-6.1396493e-07
-1.6119615e-05
-6.392832e-07
-1.841577e-05
-4.8358353e-07
-2.1099571e-05
-2.375801e-07
-2.4097322e-05
3.7798812e-08
-2.6990612e-05
5.7677218e-07
-2.9677186e-05
1.2308575e-06
-3.2462991e-05
2.4022527e-06
-3.5687171e-05
3.3617452e-06
-3.8998402e-05
5.2646801e-06
-4.2356913e-05
8.6516727e-06
-4.5849608e-05
1.4917233e-05
-4.9509945e-05
2.5599738e-05
-5.3796873e-05
3.8924207e-05
-5.8376025e-05
5.2463847e-05
-6.2739887e-05
6.7579229e-05
-6.6593519e-05
9.2078215e-05
-7.0518169e-05
0.00012343273
-7.3363563e-05
0.00016773923
-7.3204379e-05
0.000210522
-6.6985947e-05
0.00024572963
-5.4797453e-05
0.00021000859
-3.1989871e-05
2.8955368e-06
3.8490779e-07
-1.7386603e-07
3.8899072e-07
-2.097091e-07
3.9418006e-07
-2.5129504e-07
3.9987628e-07
-3.0113811e-07
4.0663835e-07
-3.6086662e-07
4.1408295e-07
-4.3242989e-07
4.226974e-07
-5.181541e-07
4.3244502e-07
-6.2082079e-07
4.4356104e-07
-7.4374111e-07
4.5656198e-07
-8.9085391e-07
4.7119721e-07
-1.0668294e-06
4.8879494e-07
-1.2771636e-06
5.0886859e-07
-1.5283357e-06
5.332773e-07
-1.8278524e-06
5.6217212e-07
-2.1843974e-06
5.9341977e-07
-2.6081111e-06
6.2545816e-07
-3.1104437e-06
6.6040981e-07
-3.7035217e-06
7.0313395e-07
-4.399759e-06
7.5438796e-07
-5.2129206e-06
8.0816812e-07
-6.1577725e-06
8.5379429e-07
-7.2466625e-06
8.6809626e-07
-8.4835869e-06
8.1554905e-07
-9.8514372e-06
6.7793095e-07
-1.1326759e-05
4.3807072e-07
-1.2870805e-05
1.6170001e-07
-1.4469667e-05
7.4194785e-08
-1.6373552e-05
8.0086318e-08
-1.8731927e-05
2.4895319e-07
-2.1475321e-05
4.9765963e-07
-2.4535485e-05
7.9309789e-07
-2.7534912e-05
1.3362316e-06
-3.0390016e-05
1.9888678e-06
-3.3367672e-05
3.1279458e-06
-3.6787223e-05
4.0795209e-06
-4.0324326e-05
5.9491216e-06
-4.3976117e-05
9.2543548e-06
-4.7902981e-05
1.5357039e-05
-5.2261123e-05
2.5715654e-05
-5.7730902e-05
3.8732202e-05
-6.404393e-05
5.1978924e-05
-7.034733e-05
6.6947577e-05
-7.6193649e-05
9.1092119e-05
-8.2731659e-05
0.00012199229
-8.9135326e-05
0.00016570302
-9.3297939e-05
0.00020820737
-9.1079394e-05
0.00024207373
-8.0832768e-05
0.00020713258
-5.5077029e-05
-6.5309028e-06
7.2949933e-07
-1.763718e-07
7.3449293e-07
-2.1272775e-07
7.4079832e-07
-2.5490726e-07
7.4775055e-07
-3.0545756e-07
7.5584399e-07
-3.660326e-07
7.6473042e-07
-4.3861645e-07
7.7501413e-07
-5.255818e-07
7.8670726e-07
-6.2976335e-07
8.0017328e-07
-7.5453165e-07
8.1600089e-07
-9.039072e-07
8.3401014e-07
-1.0826444e-06
8.5566269e-07
-1.2963496e-06
8.8050855e-07
-1.5516252e-06
9.1057972e-07
-1.8561364e-06
9.4577911e-07
-2.2186757e-06
9.8384184e-07
-2.6496018e-06
1.0238156e-06
-3.16078e-06
1.0683001e-06
-3.7645662e-06
1.1222918e-06
-4.4736791e-06
1.1863493e-06
-5.3021317e-06
1.2542718e-06
-6.2646696e-06
1.3153531e-06
-7.3732765e-06
1.3475781e-06
-8.6313452e-06
1.319035e-06
-1.0021772e-05
1.2105722e-06
-1.152152e-05
9.9982776e-07
-1.3089147e-05
7.6952674e-07
-1.472412e-05
7.3029724e-07
-1.6692765e-05
7.6847936e-07
-1.9127928e-05
9.5190937e-07
-2.1943476e-05
1.2065444e-06
-2.5078178e-05
1.5229982e-06
-2.8195623e-05
2.0730573e-06
-3.1229717e-05
2.7259838e-06
-3.4407697e-05
3.8391936e-06
-3.8030585e-05
4.788798e-06
-4.1802033e-05
6.6339016e-06
-4.5756237e-05
9.8660421e-06
-5.0119744e-05
1.5813436e-05
-5.5161491e-05
2.5857595e-05
-6.1765775e-05
3.8570922e-05
-6.9736329e-05
5.1548971e-05
-7.791268e-05
6.6375414e-05
-8.5713179e-05
9.0165189e-05
-9.4820591e-05
0.00012060201
-0.00010470135
0.00016372508
-0.00011309909
0.00020600815
-0.00011489835
0.0002387846
-0.00010668265
0.00020440541
-7.8123679e-05
-1.6143736e-05
1.0498384e-06
-1.7936462e-07
1.0536801e-06
-2.1630809e-07
1.0583996e-06
-2.5916876e-07
1.0640186e-06
-3.105339e-07
1.0714192e-06
-3.7209328e-07
1.0805541e-06
-4.4587268e-07
1.0921388e-06
-5.342997e-07
1.1061902e-06
-6.4027118e-07
1.1230621e-06
-7.6724065e-07
1.1432105e-06
-9.1931125e-07
1.1663682e-06
-1.10136e-06
1.1938459e-06
-1.3191079e-06
1.2250908e-06
-1.579311e-06
1.2617003e-06
-1.8897422e-06
1.303556e-06
-2.2593675e-06
1.3485881e-06
-2.6988529e-06
1.3967664e-06
-3.2203818e-06
1.4515105e-06
-3.8367933e-06
1.5172665e-06
-4.5611645e-06
1.5942889e-06
-5.4077194e-06
1.6761881e-06
-6.391188e-06
1.752368e-06
-7.5233857e-06
1.8017476e-06
-8.8070218e-06
1.7957961e-06
-1.022526e-05
1.7143313e-06
-1.1755243e-05
1.5311907e-06
-1.3351925e-05
1.345374e-06
-1.50308e-05
1.3543048e-06
-1.7075147e-05
1.4248961e-06
-1.9598476e-05
1.6238595e-06
-2.2497267e-05
1.8865614e-06
-2.5718079e-05
2.2242089e-06
-2.8963615e-05
2.7832442e-06
-3.2184737e-05
3.4377673e-06
-3.5569597e-05
4.5314273e-06
-3.9403337e-05
5.4845447e-06
-4.3418321e-05
7.3139673e-06
-4.768411e-05
1.0482187e-05
-5.2488668e-05
1.628305e-05
-5.8202735e-05
2.6023325e-05
-6.5896557e-05
3.8441853e-05
-7.544962e-05
5.1172046e-05
-8.5435347e-05
6.5860641e-05
-9.5153339e-05
8.9298095e-05
-0.00010678398
0.00011926771
-0.0001200557
0.00016181508
-0.00013260218
0.00020391775
-0.00013843803
0.00023580416
-0.00013235624
0.00020181645
-0.00010113936
-2.5925689e-05
1.3497131e-06
-1.8285806e-07
1.3543509e-06
-2.205458e-07
1.3601214e-06
-2.6430149e-07
1.3670408e-06
-3.1675335e-07
1.375962e-06
-3.7961754e-07
1.3868147e-06
-4.5496934e-07
1.4002967e-06
-5.4526811e-07
1.4164593e-06
-6.5347491e-07
1.4356852e-06
-7.83107e-07
1.4586087e-06
-9.38363e-07
1.4849303e-06
-1.1242145e-06
1.5162011e-06
-1.3465422e-06
1.551635e-06
-1.612254e-06
1.5926673e-06
-1.929251e-06
1.6389027e-06
-2.3067158e-06
1.6897575e-06
-2.7557485e-06
1.7461975e-06
-3.2891255e-06
1.8110935e-06
-3.9200125e-06
1.88902e-06
-4.6618435e-06
1.9792569e-06
-5.5292283e-06
2.0750648e-06
-6.5367933e-06
2.1660932e-06
-7.6963446e-06
2.2322326e-06
-9.0098731e-06
2.2484198e-06
-1.0461163e-05
2.1929923e-06
-1.2027062e-05
2.0365623e-06
-1.3658117e-05
1.8928548e-06
-1.5388531e-05
1.9476429e-06
-1.7519094e-05
2.0496578e-06
-2.0141228e-05
2.2643617e-06
-2.3133192e-05
2.5355228e-06
-2.6449366e-05
2.8936954e-06
-2.9831149e-05
3.4644769e-06
-3.3247837e-05
4.1232417e-06
-3.684887e-05
5.2033227e-06
-4.0902771e-05
6.1650821e-06
-4.5171143e-05
7.9863625e-06
-4.9759219e-05
1.1099489e-05
-5.5009977e-05
1.6763492e-05
-6.1387767e-05
2.6212102e-05
-7.0129449e-05
3.8345161e-05
-8.1194023e-05
5.0846956e-05
-9.2929114e-05
6.5401483e-05
-0.00010453064
8.849127e-05
-0.00011863782
0.00011799203
-0.00013521144
0.00015997952
-0.00015181521
0.00020191994
-0.00016170017
0.00023306091
-0.00015785835
0.00019933558
-0.00012410706
-3.5841259e-05
1.6302385e-06
-1.8681084e-07
1.6375101e-06
-2.2532005e-07
1.6468303e-06
-2.7005998e-07
1.6576281e-06
-3.2371697e-07
1.6704187e-06
-3.8805325e-07
1.6847462e-06
-4.6518295e-07
1.7012439e-06
-5.5763254e-07
1.7198365e-06
-6.6842272e-07
1.7410476e-06
-8.0114934e-07
1.7654761e-06
-9.6010658e-07
1.7931494e-06
-1.1503634e-06
1.8257267e-06
-1.3779298e-06
1.8626194e-06
-1.64983e-06
1.9053619e-06
-1.9741235e-06
1.9546765e-06
-2.3604428e-06
2.0115939e-06
-2.8204919e-06
2.0768734e-06
-3.3674511e-06
2.1519076e-06
-4.0148317e-06
2.2405073e-06
-4.7762e-06
2.342711e-06
-5.6664364e-06
2.4516224e-06
-6.7007629e-06
2.5570383e-06
-7.89119e-06
2.6398455e-06
-9.2389618e-06
2.6783983e-06
-1.0729204e-05
2.6486809e-06
-1.2337638e-05
2.5188931e-06
-1.4010529e-05
2.414991e-06
-1.5799519e-05
2.5123238e-06
-1.802325e-05
2.6438352e-06
-2.0753208e-05
2.8732526e-06
-2.3847362e-05
3.1534421e-06
-2.7268613e-05
3.532915e-06
-3.0796484e-05
4.1189012e-06
-3.4417959e-05
4.7857253e-06
-3.8244657e-05
5.8576737e-06
-4.2529127e-05
6.8324358e-06
-4.7061552e-05
8.6515357e-06
-5.198182e-05
1.1716232e-05
-5.768244e-05
1.7253059e-05
-6.4713717e-05
2.642296e-05
-7.4464008e-05
3.8280665e-05
-8.697181e-05
5.0570186e-05
-0.00010039785
6.4994025e-05
-0.00011384763
8.7740918e-05
-0.00013038061
0.00011677435
-0.00015016402
0.00015821613
-0.00017073606
0.00020000084
-0.00018467979
0.00023050689
-0.00018317931
0.00019693898
-0.00014701326
-4.5869664e-05
1.8945621e-06
-1.9126913e-07
1.9073231e-06
-2.3081239e-07
1.9220554e-06
-2.767884e-07
1.9372666e-06
-3.3191557e-07
1.9532098e-06
-3.9796935e-07
1.9698134e-06
-4.7711605e-07
1.9876954e-06
-5.719347e-07
2.0070851e-06
-6.8550943e-07
2.0287509e-06
-8.2154121e-07
2.0533668e-06
-9.8441994e-07
2.0815405e-06
-1.1793775e-06
2.1148036e-06
-1.4126023e-06
2.153163e-06
-1.6912855e-06
2.1986579e-06
-2.0238633e-06
2.2536819e-06
-2.4205473e-06
2.3194152e-06
-2.893473e-06
2.3943644e-06
-3.4560631e-06
2.4784614e-06
-4.1216777e-06
2.5750053e-06
-4.9042013e-06
2.6858756e-06
-5.8190966e-06
2.8060431e-06
-6.8824955e-06
2.9250951e-06
-8.1069423e-06
3.0246714e-06
-9.4931197e-06
3.0861164e-06
-1.1027875e-05
3.0824759e-06
-1.2685568e-05
2.9803273e-06
-1.4407545e-05
2.9135814e-06
-1.6261815e-05
3.0483937e-06
-1.8585156e-05
3.2061489e-06
-2.1430248e-05
3.4495926e-06
-2.4634675e-05
3.7417937e-06
-2.8171194e-05
4.1447967e-06
-3.1856228e-05
4.748876e-06
-3.5692459e-05
5.4268291e-06
-3.9754163e-05
6.4955381e-06
-4.4279127e-05
7.48724e-06
-4.9086758e-05
9.3094642e-06
-5.4351519e-05
1.2331053e-05
-6.0507893e-05
1.7748844e-05
-6.8183463e-05
2.6654135e-05
-7.890527e-05
3.8246231e-05
-9.2793165e-05
5.0337993e-05
-0.00010785489
6.4633673e-05
-0.00012311991
8.7042908e-05
-0.00014202845
0.00011561116
-0.00016492795
0.00015652574
-0.00018937615
0.00019815446
-0.00020738259
0.00022810192
-0.00020831633
0.00019461712
-0.0001698375
-5.5979756e-05
2.1348425e-06
-1.960513e-07
2.1472715e-06
-2.3642896e-07
2.1614696e-06
-2.833653e-07
2.1764621e-06
-3.3965325e-07
2.1925305e-06
-4.0716322e-07
2.2100779e-06
-4.8812816e-07
2.2294312e-06
-5.8522587e-07
2.2511563e-06
-7.0166884e-07
2.2756591e-06
-8.4124934e-07
2.3037767e-06
-1.0085325e-06
2.3361237e-06
-1.2088803e-06
2.3741479e-06
-1.4486876e-06
2.4184325e-06
-1.7353729e-06
2.4717443e-06
-2.0777862e-06
2.536656e-06
-2.4865893e-06
2.613143e-06
-2.9741391e-06
2.6983538e-06
-3.5539005e-06
2.7900019e-06
-4.2393631e-06
2.8921987e-06
-5.0445836e-06
3.0096072e-06
-5.9861873e-06
3.1396243e-06
-7.0814787e-06
3.2716506e-06
-8.3430806e-06
3.3878859e-06
-9.7717692e-06
3.4718429e-06
-1.1356177e-05
3.4948494e-06
-1.3070147e-05
3.4207693e-06
-1.4849746e-05
3.3868682e-06
-1.6774192e-05
3.5534265e-06
-1.9199238e-05
3.7346511e-06
-2.2164051e-05
3.9937412e-06
-2.5486973e-05
4.3015565e-06
-2.9149785e-05
4.72973e-06
-3.3001867e-05
5.3541664e-06
-3.706106e-05
6.0456584e-06
-4.1366062e-05
7.1156244e-06
-4.6141115e-05
8.1278518e-06
-5.123487e-05
9.9584031e-06
-5.685525e-05
1.2942142e-05
-6.3473077e-05
1.8248922e-05
-7.1784437e-05
2.6904146e-05
-8.3443744e-05
3.8241338e-05
-9.8652843e-05
5.0148153e-05
-0.00011529896
6.4318954e-05
-0.00013234647
8.6396296e-05
-0.00015357895
0.00011450448
-0.00017950231
0.00015490925
-0.00020774004
0.0001963774
-0.00022980922
0.00022582115
-0.00023325943
0.00019236663
-0.00019256634
-6.615505e-05
2.3531258e-06
-2.0132212e-07
2.3610076e-06
-2.4276644e-07
2.3708119e-06
-2.909528e-07
2.3827936e-06
-3.4873852e-07
2.3973725e-06
-4.1802112e-07
2.4149196e-06
-5.0110826e-07
2.4357135e-06
-6.0075079e-07
2.4602542e-06
-7.2024229e-07
2.4888627e-06
-8.6354548e-07
2.5222098e-06
-1.0353471e-06
2.5610099e-06
-1.2412675e-06
2.6063576e-06
-1.4879134e-06
2.6595421e-06
-1.7830855e-06
2.7229017e-06
-2.1360648e-06
2.7987869e-06
-2.5578046e-06
2.8862198e-06
-3.0609542e-06
2.9810733e-06
-3.6589657e-06
3.0806979e-06
-4.3655622e-06
3.189402e-06
-5.1957425e-06
3.3139311e-06
-6.1670523e-06
3.4536376e-06
-7.29727e-06
3.5982364e-06
-8.5992799e-06
3.7308858e-06
-1.0074432e-05
3.8363541e-06
-1.1713285e-05
3.8864833e-06
-1.3489964e-05
3.8391444e-06
-1.5333953e-05
3.832068e-06
-1.7331785e-05
4.0262996e-06
-1.9861149e-05
4.2307308e-06
-2.2952152e-05
4.5079758e-06
-2.640235e-05
4.8336746e-06
-3.0201087e-05
5.2879381e-06
-3.4229264e-05
5.9347004e-06
-3.8520079e-05
6.6419753e-06
-4.3077198e-05
7.717263e-06
-4.8111993e-05
8.7533819e-06
-5.3503275e-05
1.0597039e-05
-5.949252e-05
1.3548572e-05
-6.6580334e-05
1.8752286e-05
-7.5522018e-05
2.7171465e-05
-8.8086118e-05
3.8265074e-05
-0.00010456126
4.9999065e-05
-0.00012274456
6.4048495e-05
-0.0001415447
8.5800273e-05
-0.00016505097
0.00011345514
-0.00019390492
0.00015336496
-0.00022583879
0.00019465609
-0.00025195288
0.00022362716
-0.00025797707
0.00019016585
-0.00021514948
-7.6359208e-05
2.5594076e-06
-2.0700521e-07
2.5674655e-06
-2.4961129e-07
2.5772522e-06
-2.9917063e-07
2.5890633e-06
-3.5859359e-07
2.6033619e-06
-4.2984629e-07
2.6205843e-06
-5.153018e-07
2.641264e-06
-6.1777972e-07
2.6660149e-06
-7.4068414e-07
2.6955472e-06
-8.8808833e-07
2.730706e-06
-1.0648337e-06
2.7726759e-06
-1.2767654e-06
2.8224873e-06
-1.5306796e-06
2.8816609e-06
-1.834739e-06
2.9525823e-06
-2.1986752e-06
3.0369145e-06
-2.6338439e-06
3.1334445e-06
-3.1530562e-06
3.2376154e-06
-3.7701312e-06
3.3469586e-06
-4.4995363e-06
3.4650997e-06
-5.3571162e-06
3.5986833e-06
-6.3609669e-06
3.7485301e-06
-7.5289885e-06
3.9052552e-06
-8.8743873e-06
4.0536032e-06
-1.0399532e-05
4.1798876e-06
-1.2097327e-05
4.2568435e-06
-1.3943011e-05
4.233264e-06
-1.5858302e-05
4.2481612e-06
-1.7932613e-05
4.469165e-06
-2.0568602e-05
4.6980863e-06
-2.3792546e-05
4.9951559e-06
-2.737912e-05
5.3402523e-06
-3.1323728e-05
5.8214179e-06
-3.5537224e-05
6.4922761e-06
-4.0067924e-05
7.2174633e-06
-4.4885883e-05
8.3017236e-06
-5.0190503e-05
9.3647491e-06
-5.5890764e-05
1.1225719e-05
-6.2260539e-05
1.4150426e-05
-6.9825499e-05
1.925887e-05
-7.9392098e-05
2.7455197e-05
-9.2831893e-05
3.8316334e-05
-0.00011052096
4.988769e-05
-0.00013019458
6.3818888e-05
-0.00015071429
8.525065e-05
-0.00017644038
0.00011245975
-0.00020813292
0.00015188477
-0.00024367426
0.00019297734
-0.00027381103
0.00022149308
-0.0002824551
0.00018799598
-0.00023756742
-8.6573947e-05
2.7499886e-06
-2.1309231e-07
2.7584793e-06
-2.5694495e-07
2.7687272e-06
-3.0796757e-07
2.7810622e-06
-3.6915328e-07
2.7959333e-06
-4.4252347e-07
2.8137958e-06
-5.3052409e-07
2.8352336e-06
-6.3605947e-07
2.8609043e-06
-7.6266306e-07
2.8916305e-06
-9.1450276e-07
2.9284132e-06
-1.0966249e-06
2.9726006e-06
-1.3150309e-06
3.0254459e-06
-1.5767912e-06
3.0883174e-06
-1.8903621e-06
3.1638447e-06
-2.2658316e-06
3.2536171e-06
-2.714855e-06
3.3567349e-06
-3.2507129e-06
3.4700654e-06
-3.8878805e-06
3.5904033e-06
-4.6415563e-06
3.7197716e-06
-5.528543e-06
3.8641708e-06
-6.5674273e-06
4.0245696e-06
-7.7758759e-06
4.1927264e-06
-9.1673612e-06
4.3557844e-06
-1.0745632e-05
4.5021077e-06
-1.2506441e-05
4.6047125e-06
-1.4427036e-05
4.6022882e-06
-1.641979e-05
4.6368282e-06
-1.8574013e-05
4.8847875e-06
-2.1320029e-05
5.13906e-06
-2.468359e-05
5.4569321e-06
-2.8414957e-05
5.8228012e-06
-3.2514391e-05
6.331622e-06
-3.6922086e-05
7.0281874e-06
-4.1701344e-05
7.7733001e-06
-4.6789233e-05
8.8698491e-06
-5.23737e-05
9.9624147e-06
-5.8394807e-05
1.1844324e-05
-6.5158666e-05
1.4747179e-05
-7.3210191e-05
1.9767931e-05
-8.3399199e-05
2.7754259e-05
-9.7688094e-05
3.839286e-05
-0.00011654103
4.9810774e-05
-0.00013766041
6.3626198e-05
-0.00015987038
8.4743434e-05
-0.00018776434
0.00011151407
-0.00022220167
0.00015046536
-0.00026125697
0.00019133851
-0.00029538455
0.00021940472
-0.00030667391
0.00018585397
-0.00025978505
-9.6771705e-05
2.9254345e-06
-2.1957465e-07
2.9343823e-06
-2.6475571e-07
2.9451738e-06
-3.1734008e-07
2.9581451e-06
-3.8039787e-07
2.9737722e-06
-4.5603551e-07
2.992516e-06
-5.4674491e-07
3.0150286e-06
-6.555653e-07
3.0419774e-06
-7.8610879e-07
3.0742974e-06
-9.4271925e-07
3.1130564e-06
-1.1305963e-06
3.1594813e-06
-1.3559178e-06
3.2149602e-06
-1.6260377e-06
3.2807805e-06
-1.9497219e-06
3.3591459e-06
-2.3373192e-06
3.4519368e-06
-2.8008284e-06
3.5600694e-06
-3.354018e-06
3.6817139e-06
-4.012163e-06
3.8130263e-06
-4.7915378e-06
3.9545865e-06
-5.7098487e-06
4.1105838e-06
-6.7857474e-06
4.2815443e-06
-8.0368282e-06
4.4606227e-06
-9.4768588e-06
4.6377557e-06
-1.1111104e-05
4.8026191e-06
-1.2937928e-05
4.9276058e-06
-1.4936161e-05
4.9441815e-06
-1.7011565e-05
4.9987191e-06
-1.9252171e-05
5.2741271e-06
-2.2112143e-05
5.5539469e-06
-2.5619572e-05
5.8932035e-06
-2.9502342e-05
6.2809588e-06
-3.3764901e-05
6.8180457e-06
-3.8374692e-05
7.5417227e-06
-4.3409754e-05
8.3086358e-06
-4.8775605e-05
9.4204981e-06
-5.4649434e-05
1.0544979e-05
-6.1002281e-05
1.2451254e-05
-6.8171821e-05
1.5337034e-05
-7.6717803e-05
2.0277905e-05
-8.7527074e-05
2.8066824e-05
-0.00010264246
3.8492763e-05
-0.00012261414
4.9766108e-05
-0.00014513831
6.3468706e-05
-0.00016900923
8.4277034e-05
-0.00019901897
0.00011061763
-0.0002361134
0.00014910469
-0.00027859611
0.00018973806
-0.00031667772
0.00021735483
-0.00033062791
0.0001837422
-0.00028179543
-0.00010694167
3.0866402e-06
-2.2644318e-07
3.0960209e-06
-2.7302028e-07
3.1073339e-06
-3.2725946e-07
3.120931e-06
-3.9230142e-07
3.1373025e-06
-4.7032394e-07
3.1569449e-06
-5.6390546e-07
3.1805434e-06
-6.7618885e-07
3.2088005e-06
-8.108984e-07
3.2427409e-06
-9.7254609e-07
3.2834388e-06
-1.1665093e-06
3.33196e-06
-1.3991247e-06
3.3894488e-06
-1.6779903e-06
3.457487e-06
-2.0122298e-06
3.5375094e-06
-2.4123947e-06
3.6323882e-06
-2.890917e-06
3.7450214e-06
-3.4623497e-06
3.8742467e-06
-4.1426265e-06
4.0167074e-06
-4.9491676e-06
4.1708959e-06
-5.90063e-06
4.3385421e-06
-7.015349e-06
4.5199635e-06
-8.3111739e-06
4.7099048e-06
-9.8022642e-06
4.9005564e-06
-1.149519e-05
5.081765e-06
-1.3390641e-05
5.2248636e-06
-1.546884e-05
5.2582125e-06
-1.7631313e-05
5.334176e-06
-1.9963636e-05
5.6383042e-06
-2.2942227e-05
5.9436503e-06
-2.6598896e-05
6.3047599e-06
-3.0639369e-05
6.7152104e-06
-3.5072546e-05
7.280966e-06
-3.9891907e-05
8.0329025e-06
-4.51903e-05
8.823296e-06
-5.0842337e-05
9.9531211e-06
-5.7014844e-05
1.1111746e-05
-6.3710907e-05
1.3045407e-05
-7.1299614e-05
1.5918834e-05
-8.0350432e-05
2.0787376e-05
-9.1780265e-05
2.8391424e-05
-0.00010770184
3.8614632e-05
-0.00012875047
4.9752072e-05
-0.0001526411
6.3344799e-05
-0.00017814666
8.3850476e-05
-0.0002102221
0.00010976995
-0.00024988391
0.00014779758
-0.00029569633
0.00018816323
-0.00033767061
0.00021532227
-0.00035426245
0.00018164335
-0.00030352373
-0.00011704224
3.234142e-06
-2.3367956e-07
3.2437461e-06
-2.8172253e-07
3.2552919e-06
-3.3769032e-07
3.2692116e-06
-4.0481361e-07
3.2859901e-06
-4.8531778e-07
3.3061985e-06
-5.8189405e-07
3.3304873e-06
-6.9776938e-07
3.3597065e-06
-8.3680009e-07
3.3947783e-06
-1.003655e-06
3.4369219e-06
-1.2038869e-06
3.4869931e-06
-1.4440403e-06
3.5461793e-06
-1.7320121e-06
3.6158778e-06
-2.0771523e-06
3.6976522e-06
-2.4904513e-06
3.7953576e-06
-2.9849339e-06
3.9125448e-06
-3.575581e-06
4.0495947e-06
-4.2793041e-06
4.2031445e-06
-5.114628e-06
4.3697384e-06
-6.1006156e-06
4.5488972e-06
-7.255794e-06
4.7408128e-06
-8.5983479e-06
4.9413283e-06
-1.0142367e-05
5.1444841e-06
-1.1895841e-05
5.3387276e-06
-1.3860468e-05
5.4966506e-06
-1.6019234e-05
5.5467272e-06
-1.8274319e-05
5.6453277e-06
-2.0706719e-05
5.9790581e-06
-2.380944e-05
6.309905e-06
-2.7619481e-05
6.6930778e-06
-3.1823512e-05
7.1268736e-06
-3.6434648e-05
7.7216409e-06
-4.147099e-05
8.502874e-06
-4.7039803e-05
9.3185798e-06
-5.2986698e-05
1.046911e-05
-5.9468765e-05
1.166376e-05
-6.6519767e-05
1.3627507e-05
-7.4539144e-05
1.6492822e-05
-8.4103153e-05
2.1296145e-05
-9.6153287e-05
2.8727311e-05
-0.00011286399
3.8757402e-05
-0.00013495216
4.9765884e-05
-0.00016017031
6.3250976e-05
-0.00018727881
8.3459276e-05
-0.00022136683
0.00010896575
-0.00026350929
0.00014653561
-0.00031255957
0.00018660269