/*--------------------------------*- C++ -*----------------------------------*\
  =========                 |
  \\      /  F ield         | OpenFOAM: The Open Source CFD Toolbox
   \\    /   O peration     | Website:  https://openfoam.org
    \\  /    A nd           | Version:  8
     \\/     M anipulation  |
\*---------------------------------------------------------------------------*/
FoamFile
{
    version     2.0;
    format      ascii;
    class       volScalarField;
    location    "0.10999";
    object      nut;
}
// * * * * * * * * * * * * * * * * * * * * * * * * * * * * * * * * * * * * * //

dimensions      [0 2 -1 0 0 0 0];

internalField   nonuniform List<scalar> 
20000
(
0.0012996076
0.0032084297
0.0042783848
0.0046408792
0.0041419405
0.002385609
0.00033038456
1.0029436e-08
2.737678e-09
2.721881e-09
2.6101856e-09
2.6330628e-09
2.5795328e-09
2.6122355e-09
2.6068639e-09
2.6470198e-09
2.6698358e-09
2.719658e-09
2.7669672e-09
2.8385004e-09
2.9199972e-09
3.0293173e-09
3.1612669e-09
3.3306999e-09
3.537401e-09
3.7916223e-09
4.0915418e-09
4.4346645e-09
4.8050892e-09
5.1834559e-09
5.5472328e-09
5.8804126e-09
6.1730502e-09
6.422595e-09
6.6283159e-09
6.7948848e-09
6.9262866e-09
7.0299433e-09
7.109403e-09
7.1711029e-09
7.2188407e-09
7.2584219e-09
7.28809e-09
7.3153764e-09
7.3459279e-09
7.3844167e-09
7.4057197e-09
7.4105976e-09
7.4063417e-09
7.4150129e-09
0.0013016055
0.0031848586
0.0042069019
0.0045214409
0.0039745379
0.0021344241
0.00023696133
6.4237919e-09
2.7263302e-09
2.7152874e-09
2.6042616e-09
2.6289642e-09
2.5753771e-09
2.6086512e-09
2.6034288e-09
2.6443641e-09
2.6675324e-09
2.7176039e-09
2.7655962e-09
2.8379987e-09
2.9207009e-09
3.0326924e-09
3.1679657e-09
3.3406552e-09
3.5507723e-09
3.8078237e-09
4.1100319e-09
4.4540579e-09
4.8243319e-09
5.2015698e-09
5.5638049e-09
5.8949974e-09
6.1853779e-09
6.4326498e-09
6.6363511e-09
6.8011116e-09
6.9308686e-09
7.0332654e-09
7.1118667e-09
7.173068e-09
7.2205581e-09
7.2599012e-09
7.2892155e-09
7.3165022e-09
7.3505346e-09
7.3861822e-09
7.4057485e-09
7.411549e-09
7.4061438e-09
7.4151786e-09
0.0012937826
0.0031447585
0.0041283684
0.0044028683
0.0038177678
0.0019055118
0.00015521753
4.7739514e-09
2.7208701e-09
2.7124651e-09
2.6020891e-09
2.6271115e-09
2.5743596e-09
2.6080022e-09
2.602869e-09
2.6442317e-09
2.6678537e-09
2.7196536e-09
2.7700221e-09
2.845511e-09
2.9315942e-09
3.0463427e-09
3.184524e-09
3.3603015e-09
3.573706e-09
3.8338224e-09
4.1384308e-09
4.4833695e-09
4.8527657e-09
5.2274798e-09
5.5862929e-09
5.9137211e-09
6.2005649e-09
6.4445779e-09
6.6453932e-09
6.8076904e-09
6.9355362e-09
7.0365234e-09
7.1141593e-09
7.1748342e-09
7.2220615e-09
7.2610526e-09
7.2901019e-09
7.3176061e-09
7.3553604e-09
7.3903061e-09
7.4069848e-09
7.4107934e-09
7.4066481e-09
7.414022e-09
0.0012865773
0.0031066214
0.0040512108
0.0042837583
0.0036608258
0.0016860251
8.7475916e-05
3.9376894e-09
2.7191619e-09
2.7108171e-09
2.5997089e-09
2.6255339e-09
2.5757949e-09
2.6104375e-09
2.6064141e-09
2.6496806e-09
2.6751737e-09
2.7290352e-09
2.7814476e-09
2.859297e-09
2.9481207e-09
3.0662304e-09
3.2083299e-09
3.3883691e-09
3.6063675e-09
3.8708022e-09
4.1788038e-09
4.5251153e-09
4.8934354e-09
5.2647695e-09
5.6187969e-09
5.9408285e-09
6.2223706e-09
6.4616369e-09
6.6584184e-09
6.8173657e-09
6.9425197e-09
7.0414942e-09
7.1177113e-09
7.1775457e-09
7.2243424e-09
7.2627872e-09
7.2913449e-09
7.3193891e-09
7.3605987e-09
7.3925572e-09
7.4076448e-09
7.4108373e-09
7.4066615e-09
7.4132861e-09
0.0012790964
0.0030695218
0.0039758603
0.0041642093
0.0035037477
0.001478306
4.0607796e-05
3.4993595e-09
2.7203331e-09
2.7133856e-09
2.600847e-09
2.6273724e-09
2.5821587e-09
2.6182361e-09
2.6152454e-09
2.6600473e-09
2.6870246e-09
2.7429038e-09
2.7976641e-09
2.8783513e-09
2.9704932e-09
3.0922995e-09
3.238673e-09
3.4234828e-09
3.6467039e-09
3.9161633e-09
4.2281064e-09
4.5760176e-09
4.9429642e-09
5.3101015e-09
5.6581182e-09
5.9734081e-09
6.2484205e-09
6.4818905e-09
6.6737535e-09
6.8286681e-09
6.9506445e-09
7.047258e-09
7.1217954e-09
7.1806044e-09
7.226833e-09
7.2646915e-09
7.2927389e-09
7.3218621e-09
7.3654732e-09
7.3950831e-09
7.4084694e-09
7.4107137e-09
7.4067391e-09
7.412247e-09
0.0012715985
0.0030335634
0.0039030176
0.0040459069
0.0033443878
0.0012834707
1.5665636e-05
3.2667402e-09
2.727623e-09
2.7181798e-09
2.6085339e-09
2.6326252e-09
2.5919031e-09
2.6294513e-09
2.6275839e-09
2.6740538e-09
2.7027534e-09
2.7607621e-09
2.8178999e-09
2.901441e-09
2.9970386e-09
3.1230025e-09
3.2743575e-09
3.4647754e-09
3.6941587e-09
3.9695304e-09
4.2860704e-09
4.6358351e-09
5.0011881e-09
5.3634697e-09
5.7044689e-09
6.0118374e-09
6.2791283e-09
6.50576e-09
6.6918468e-09
6.8420437e-09
6.9602936e-09
7.0541307e-09
7.1266762e-09
7.184233e-09
7.2297537e-09
7.2669368e-09
7.2944815e-09
7.3254525e-09
7.3698881e-09
7.3971082e-09
7.4092272e-09
7.4109342e-09
7.406682e-09
7.411156e-09
0.0012644613
0.0029987151
0.0038326185
0.0039343504
0.0031803959
0.0011019872
5.3074744e-06
3.1393476e-09
2.7347789e-09
2.7279829e-09
2.6191467e-09
2.6451488e-09
2.604995e-09
2.6436334e-09
2.6428756e-09
2.6909261e-09
2.7213146e-09
2.7815077e-09
2.8412594e-09
2.9279983e-09
3.0275053e-09
3.1580939e-09
3.3149765e-09
3.5116625e-09
3.7479445e-09
4.0299145e-09
4.3515018e-09
4.703213e-09
5.0666772e-09
5.4234599e-09
5.7565524e-09
6.0550127e-09
6.3136331e-09
6.5325847e-09
6.7121772e-09
6.857077e-09
6.9711534e-09
7.061879e-09
7.1321803e-09
7.1883078e-09
7.2330151e-09
7.269359e-09
7.2965687e-09
7.3302214e-09
7.373726e-09
7.3990177e-09
7.4099859e-09
7.4113158e-09
7.4063499e-09
7.4099946e-09
0.0012575515
0.0029635672
0.0037618322
0.0038161995
0.0030100735
0.00093541611
1.6958498e-06
3.0732405e-09
2.7439935e-09
2.739368e-09
2.6316368e-09
2.6588469e-09
2.6199082e-09
2.659915e-09
2.6603931e-09
2.7101015e-09
2.7423558e-09
2.804897e-09
2.8674723e-09
2.9576602e-09
3.0614285e-09
3.1971144e-09
3.3601398e-09
3.5638099e-09
3.8077447e-09
4.0969516e-09
4.4239347e-09
4.7775685e-09
5.1387682e-09
5.4894224e-09
5.8138101e-09
6.1025e-09
6.3516177e-09
6.5621523e-09
6.7346201e-09
6.8737033e-09
6.9831928e-09
7.0704929e-09
7.1383144e-09
7.1928513e-09
7.2366199e-09
7.2719192e-09
7.2990092e-09
7.3357235e-09
7.3773641e-09
7.4007918e-09
7.410676e-09
7.4115992e-09
7.4058805e-09
7.4088505e-09
0.0012506909
0.0029285204
0.0036893594
0.003699812
0.0028330519
0.00078457479
5.4231583e-07
3.0412944e-09
2.7551759e-09
2.752694e-09
2.6460895e-09
2.6748564e-09
2.6368627e-09
2.6781551e-09
2.6799442e-09
2.7313521e-09
2.7655905e-09
2.8306405e-09
2.8963093e-09
2.9902711e-09
3.0987197e-09
3.2399827e-09
3.4097264e-09
3.6210385e-09
3.8732884e-09
4.1702303e-09
4.5027832e-09
4.8581487e-09
5.2165968e-09
5.5604611e-09
5.8754068e-09
6.153586e-09
6.3925188e-09
6.5940375e-09
6.7588586e-09
6.8916888e-09
6.996245e-09
7.0798567e-09
7.1450012e-09
7.1978075e-09
7.2405095e-09
7.2745632e-09
7.3017374e-09
7.3415707e-09
7.3810182e-09
7.4026161e-09
7.4113328e-09
7.4117569e-09
7.4053444e-09
7.4077465e-09
0.0012438464
0.0028941513
0.0036177133
0.0035826916
0.0026485257
0.00065300483
1.8216184e-07
3.0286117e-09
2.7679726e-09
2.7674257e-09
2.6621465e-09
2.6921916e-09
2.655389e-09
2.698053e-09
2.701308e-09
2.7545112e-09
2.7909299e-09
2.8586862e-09
2.9277158e-09
3.025755e-09
3.1392813e-09
3.2866009e-09
3.463659e-09
3.6832745e-09
3.9444621e-09
4.2495305e-09
4.5876758e-09
4.9444223e-09
5.2995228e-09
5.6358977e-09
5.9407026e-09
6.2077205e-09
6.4358966e-09
6.6279083e-09
6.7846523e-09
6.9108629e-09
7.0101916e-09
7.0898916e-09
7.1521932e-09
7.203138e-09
7.2446362e-09
7.2772998e-09
7.3046775e-09
7.3474744e-09
7.3847585e-09
7.4045218e-09
7.4119831e-09
7.4118267e-09
7.4047705e-09
7.4067152e-09
0.0012374475
0.0028601298
0.0035463167
0.0034661902
0.0024569474
0.00053484584
6.6538041e-08
3.0272328e-09
2.7821907e-09
2.7834608e-09
2.6797112e-09
2.7110611e-09
2.6755163e-09
2.7195859e-09
2.7244381e-09
2.779539e-09
2.8183207e-09
2.8889875e-09
2.9616622e-09
3.0641041e-09
3.1831298e-09
3.3370036e-09
3.5219722e-09
3.7505318e-09
4.0212071e-09
4.3346587e-09
4.6782392e-09
5.0358482e-09
5.386886e-09
5.7150277e-09
6.0090231e-09
6.2643146e-09
6.4812722e-09
6.6633951e-09
6.8117236e-09
6.9310203e-09
7.0248857e-09
7.1004963e-09
7.1598259e-09
7.2087912e-09
7.2489279e-09
7.2801346e-09
7.3077762e-09
7.3532175e-09
7.3884895e-09
7.4065565e-09
7.4127433e-09
7.4118404e-09
7.4041588e-09
7.4057697e-09
0.0012311296
0.0028257652
0.0034741684
0.0033477445
0.0022600714
0.00042505519
2.7582816e-08
3.0330152e-09
2.7978909e-09
2.8007941e-09
2.6986495e-09
2.7312968e-09
2.6971262e-09
2.742672e-09
2.7492857e-09
2.8064115e-09
2.8477689e-09
2.9215587e-09
2.9981609e-09
3.1053345e-09
3.2302924e-09
3.3912364e-09
3.5847302e-09
3.8228667e-09
4.1035135e-09
4.4254723e-09
4.7741598e-09
5.1319575e-09
5.4781077e-09
5.7972349e-09
6.0797781e-09
6.3228487e-09
6.5282184e-09
6.700165e-09
6.8398199e-09
6.951973e-09
7.0401913e-09
7.1115766e-09
7.1678398e-09
7.2147258e-09
7.2533607e-09
7.2830697e-09
7.3110563e-09
7.3586377e-09
7.3920676e-09
7.4087185e-09
7.4137678e-09
7.4115714e-09
7.4034929e-09
7.4049182e-09
0.0012248415
0.002790992
0.0034005784
0.0032226692
0.0020595292
0.00032500055
1.3534155e-08
3.0431836e-09
2.8149135e-09
2.8192934e-09
2.7189203e-09
2.7528811e-09
2.7202267e-09
2.7673163e-09
2.7758736e-09
2.8351484e-09
2.8792938e-09
2.956419e-09
3.0372479e-09
3.149506e-09
3.2808581e-09
3.4494171e-09
3.6520665e-09
3.9003946e-09
4.1914089e-09
4.5218453e-09
4.8751296e-09
5.2322784e-09
5.5726128e-09
5.8819133e-09
6.1523886e-09
6.3828112e-09
6.5763126e-09
6.7378858e-09
6.8686851e-09
6.9735268e-09
7.0559667e-09
7.1230328e-09
7.1761709e-09
7.2209045e-09
7.2579034e-09
7.2861271e-09
7.3146524e-09
7.3636568e-09
7.3953429e-09
7.4107853e-09
7.4153199e-09
7.4109002e-09
7.4028016e-09
7.4041566e-09
0.0012185919
0.0027556676
0.0033255015
0.003099335
0.0018584314
0.00023382334
7.9680615e-09
3.0562431e-09
2.8331204e-09
2.8389831e-09
2.7405054e-09
2.7758316e-09
2.744809e-09
2.793545e-09
2.8042138e-09
2.8657822e-09
2.9129216e-09
2.9935939e-09
3.0789695e-09
3.196689e-09
3.3349259e-09
3.5116721e-09
3.7241266e-09
3.9832368e-09
4.2849198e-09
4.6236433e-09
4.9808372e-09
5.336352e-09
5.6698641e-09
5.9685088e-09
6.2263318e-09
6.4437416e-09
6.6251737e-09
6.7762559e-09
6.8980842e-09
6.9955013e-09
7.072078e-09
7.1347708e-09
7.1847561e-09
7.2272924e-09
7.2625255e-09
7.2893645e-09
7.3187809e-09
7.3682135e-09
7.398308e-09
7.4127337e-09
7.4167638e-09
7.4101264e-09
7.4021218e-09
7.4034741e-09
0.0012125009
0.0027203311
0.0032464532
0.0029762282
0.0016582708
0.00015136373
5.536002e-09
3.0712653e-09
2.8526351e-09
2.8598758e-09
2.763439e-09
2.8001557e-09
2.7709167e-09
2.8213805e-09
2.8343507e-09
2.8983314e-09
2.9486859e-09
3.033141e-09
3.1234071e-09
3.2470013e-09
3.3926486e-09
3.57819e-09
3.8011138e-09
4.0715594e-09
4.3840923e-09
4.7307319e-09
5.0909585e-09
5.4437143e-09
5.7693275e-09
6.0564794e-09
6.3011011e-09
6.5051977e-09
6.6744368e-09
6.8149845e-09
6.927787e-09
7.0177178e-09
7.088393e-09
7.1466972e-09
7.1935302e-09
7.2338482e-09
7.2671882e-09
7.2928471e-09
7.3236101e-09
7.3723141e-09
7.4009655e-09
7.4144029e-09
7.4180876e-09
7.4092499e-09
7.4014728e-09
7.4028564e-09
0.0012067206
0.0026864809
0.0031725724
0.0028514418
0.0014615733
8.240963e-05
4.3871884e-09
3.0876055e-09
2.873404e-09
2.8819654e-09
2.787729e-09
2.8258878e-09
2.7985722e-09
2.8508639e-09
2.8662984e-09
2.9328379e-09
2.9866291e-09
3.075124e-09
3.170656e-09
3.3005706e-09
3.4541895e-09
3.6491619e-09
3.8832312e-09
4.1655053e-09
4.4889351e-09
4.8429301e-09
5.2051389e-09
5.5538962e-09
5.8704878e-09
6.1453198e-09
6.3762365e-09
6.5667847e-09
6.723779e-09
6.853811e-09
6.9575852e-09
7.0400131e-09
7.1047897e-09
7.1587261e-09
7.2024298e-09
7.2405212e-09
7.2718574e-09
7.2966172e-09
7.329025e-09
7.3761639e-09
7.4033723e-09
7.4156976e-09
7.4187497e-09
7.4083769e-09
7.4008724e-09
7.4022892e-09
0.0012009106
0.002651788
0.0030969392
0.002722905
0.0012712844
3.5627282e-05
3.820472e-09
3.1051461e-09
2.8954543e-09
2.9053201e-09
2.8134173e-09
2.8530694e-09
2.8278176e-09
2.8820105e-09
2.9000891e-09
2.9693202e-09
3.0268073e-09
3.1196392e-09
3.22085e-09
3.3575717e-09
3.5197596e-09
3.7248383e-09
3.9707285e-09
4.2652531e-09
4.599458e-09
4.9600442e-09
5.3230071e-09
5.6664196e-09
5.9728341e-09
6.2345382e-09
6.4512977e-09
6.6281313e-09
6.7728984e-09
6.8924876e-09
6.9872776e-09
7.0622295e-09
7.1211503e-09
7.170775e-09
7.2113933e-09
7.2472606e-09
7.2766283e-09
7.3006818e-09
7.3348557e-09
7.3798982e-09
7.4055131e-09
7.4167011e-09
7.4190121e-09
7.407575e-09
7.4003187e-09
7.4017592e-09
0.0011951452
0.0026167164
0.0030198514
0.002589155
0.0010899052
1.2243194e-05
3.5377368e-09
3.1248844e-09
2.9188644e-09
2.9299797e-09
2.8405418e-09
2.8817269e-09
2.8586521e-09
2.9148355e-09
2.9357313e-09
3.0078421e-09
3.0693052e-09
3.1668012e-09
3.2741364e-09
3.4181858e-09
3.5895742e-09
3.8054649e-09
4.0638374e-09
4.3709347e-09
4.7156073e-09
5.0818111e-09
5.4441409e-09
5.7807863e-09
6.0758635e-09
6.3236729e-09
6.5258868e-09
6.6889089e-09
6.821531e-09
6.9307957e-09
7.0166869e-09
7.0842284e-09
7.137369e-09
7.1827699e-09
7.2203646e-09
7.254002e-09
7.2814244e-09
7.3050362e-09
7.3410657e-09
7.3835351e-09
7.4073579e-09
7.4175096e-09
7.4190728e-09
7.4068397e-09
7.3998039e-09
7.4012564e-09
0.0011893802
0.0025813397
0.0029411993
0.0024506803
0.00092010634
3.5919414e-06
3.4010214e-09
3.1464635e-09
2.9436163e-09
2.9559611e-09
2.8690932e-09
2.9118494e-09
2.8910804e-09
2.9493493e-09
2.9732819e-09
3.0484691e-09
3.1142322e-09
3.2167557e-09
3.3307005e-09
3.4826363e-09
3.6639026e-09
3.8913448e-09
4.1628352e-09
4.4826973e-09
4.83732e-09
5.2079498e-09
5.5681048e-09
5.8964938e-09
6.1790791e-09
6.4122772e-09
6.5996265e-09
6.7488085e-09
6.869426e-09
6.9685313e-09
7.0456489e-09
7.1058806e-09
7.1533457e-09
7.1946412e-09
7.2292901e-09
7.2606916e-09
7.286154e-09
7.3096744e-09
7.3476422e-09
7.3871314e-09
7.4088819e-09
7.4178798e-09
7.4190446e-09
7.4061758e-09
7.3993159e-09
7.4007738e-09
0.0011836751
0.0025461037
0.0028610939
0.0023087549
0.00076354808
9.8550661e-07
3.3412179e-09
3.1692528e-09
2.9697439e-09
2.9832579e-09
2.8990584e-09
2.9434246e-09
2.9251108e-09
2.9856055e-09
3.0128115e-09
3.0913184e-09
3.1617191e-09
3.2696631e-09
3.390732e-09
3.5511504e-09
3.743014e-09
3.9827708e-09
4.2679587e-09
4.6006118e-09
4.9644381e-09
5.338098e-09
5.6944103e-09
6.0130205e-09
6.2819917e-09
6.4999328e-09
6.6721769e-09
6.8075539e-09
6.9163552e-09
7.0055259e-09
7.0740313e-09
7.1270769e-09
7.1689952e-09
7.2063277e-09
7.23812e-09
7.2672954e-09
7.290833e-09
7.3145786e-09
7.3545057e-09
7.390752e-09
7.4102379e-09
7.4180586e-09
7.4189863e-09
7.4055734e-09
7.3988348e-09
7.4003067e-09
0.0011781673
0.0025115992
0.0027807678
0.0021591586
0.00062150224
2.7876427e-07
3.3217125e-09
3.1931572e-09
2.9970981e-09
3.0118457e-09
2.930415e-09
2.9764833e-09
2.9608057e-09
3.0236947e-09
3.0544308e-09
3.1365068e-09
3.2119144e-09
3.3257126e-09
3.4544603e-09
3.6240057e-09
3.8272408e-09
4.0800948e-09
4.3794803e-09
4.7247527e-09
5.0967893e-09
5.4718719e-09
5.822557e-09
6.1298443e-09
6.3841257e-09
6.5862419e-09
6.7432194e-09
6.8648814e-09
6.9620946e-09
7.0416369e-09
7.1017226e-09
7.1477146e-09
7.1842418e-09
7.2177731e-09
7.2468062e-09
7.2737696e-09
7.295461e-09
7.3197669e-09
7.3614775e-09
7.3944198e-09
7.4115976e-09
7.4181022e-09
7.4184698e-09
7.4049407e-09
7.3983315e-09
7.3998515e-09
0.0011729043
0.0024777819
0.0027073651
0.0020020408
0.00049726693
9.06341e-08
3.3232008e-09
3.2183476e-09
3.0257252e-09
3.0417302e-09
2.9632293e-09
3.0111093e-09
2.9982698e-09
3.0637248e-09
3.0982538e-09
3.184173e-09
3.2649814e-09
3.3851058e-09
3.5221189e-09
3.701485e-09
3.9169087e-09
4.1836383e-09
4.497598e-09
4.855092e-09
5.2340872e-09
5.6087929e-09
5.9519831e-09
6.2464202e-09
6.4850182e-09
6.670839e-09
6.8124678e-09
6.9205588e-09
7.0064577e-09
7.0767657e-09
7.1286367e-09
7.1677008e-09
7.1990266e-09
7.2289293e-09
7.2553049e-09
7.280085e-09
7.3000811e-09
7.3253479e-09
7.3682491e-09
7.3980195e-09
7.4129889e-09
7.4180984e-09
7.417643e-09
7.4041791e-09
7.3977931e-09
7.3994046e-09
0.0011678291
0.002442913
0.0026301474
0.0018364427
0.00038823672
3.5639156e-08
3.3361674e-09
3.2448232e-09
3.055714e-09
3.0729734e-09
2.9975822e-09
3.0474123e-09
3.0376121e-09
3.1058094e-09
3.1443974e-09
3.2344581e-09
3.3211074e-09
3.4480646e-09
3.5939911e-09
3.7839315e-09
4.0124163e-09
4.2937726e-09
4.6225324e-09
4.9915882e-09
5.3760203e-09
5.7483559e-09
6.0821154e-09
6.3622103e-09
6.5842308e-09
6.7533905e-09
6.8796566e-09
6.9743851e-09
7.0493258e-09
7.1108359e-09
7.1546751e-09
7.1869363e-09
7.2132974e-09
7.2397533e-09
7.2635741e-09
7.286217e-09
7.3047637e-09
7.331504e-09
7.3744378e-09
7.401344e-09
7.414395e-09
7.4182443e-09
7.4164351e-09
7.4033051e-09
7.3972287e-09
7.3989613e-09
0.0011629739
0.0024075186
0.0025527154
0.0016649649
0.00029016927
1.6959171e-08
3.3555282e-09
3.2724718e-09
3.0871185e-09
3.1058228e-09
3.0336029e-09
3.0855117e-09
3.0789199e-09
3.1500467e-09
3.1929893e-09
3.2875343e-09
3.3804991e-09
3.514836e-09
3.670365e-09
3.8716986e-09
4.1141408e-09
4.4108156e-09
4.7543844e-09
5.1340618e-09
5.5221369e-09
5.8899569e-09
6.212321e-09
6.4766614e-09
6.6813517e-09
6.833607e-09
6.9445612e-09
7.0262273e-09
7.0907202e-09
7.1437813e-09
7.1797067e-09
7.205329e-09
7.2270052e-09
7.2502119e-09
7.2715762e-09
7.2921395e-09
7.3095659e-09
7.3383192e-09
7.3798003e-09
7.4042125e-09
7.41561e-09
7.4189332e-09
7.414843e-09
7.4023777e-09
7.3966563e-09
7.3985155e-09
0.0011583209
0.0023712915
0.0024736773
0.0014901633
0.00020207577
9.8497365e-09
3.3791296e-09
3.3014673e-09
3.1199773e-09
3.1402945e-09
3.0714031e-09
3.1254605e-09
3.1222812e-09
3.1965468e-09
3.2441823e-09
3.3435923e-09
3.4433947e-09
3.5857036e-09
3.7515936e-09
3.9652097e-09
4.2225412e-09
4.5351208e-09
4.8932667e-09
5.2822981e-09
5.6719543e-09
6.032967e-09
6.3419615e-09
6.5892476e-09
6.7760174e-09
6.9112384e-09
7.0070006e-09
7.0760272e-09
7.130799e-09
7.175486e-09
7.2035467e-09
7.2228079e-09
7.2400869e-09
7.260279e-09
7.2792763e-09
7.2978373e-09
7.3145319e-09
7.3454551e-09
7.384479e-09
7.4067082e-09
7.4166462e-09
7.4193055e-09
7.4131528e-09
7.4014713e-09
7.3960913e-09
7.398061e-09
0.0011539013
0.0023339858
0.0023930997
0.0013205878
0.00012521498
6.8267842e-09
3.405547e-09
3.331823e-09
3.1544083e-09
3.1763618e-09
3.1109799e-09
3.1673513e-09
3.1677943e-09
3.2454568e-09
3.2981596e-09
3.4028538e-09
3.5100462e-09
3.6609653e-09
3.8380423e-09
4.0648946e-09
4.3380352e-09
4.6669478e-09
5.039136e-09
5.4359165e-09
5.8248424e-09
6.1766517e-09
6.4703577e-09
6.6994767e-09
6.8679128e-09
6.9860657e-09
7.0668625e-09
7.1238135e-09
7.1697149e-09
7.2057565e-09
7.2260409e-09
7.239375e-09
7.2524734e-09
7.2699389e-09
7.2866455e-09
7.3032957e-09
7.3196285e-09
7.3524775e-09
7.3886513e-09
7.4088202e-09
7.4174748e-09
7.419418e-09
7.411549e-09
7.4005832e-09
7.3955376e-09
7.3975914e-09
0.0011494152
0.0022936014
0.002309393
0.001160594
6.4957336e-05
5.41958e-09
3.4342102e-09
3.36373e-09
3.190499e-09
3.2141562e-09
3.1523802e-09
3.2112829e-09
3.2156095e-09
3.296962e-09
3.3551266e-09
3.4655526e-09
3.5807329e-09
3.740976e-09
3.9301509e-09
4.1712651e-09
4.4611003e-09
4.8065745e-09
5.1919315e-09
5.5945031e-09
5.98014e-09
6.3202781e-09
6.5969003e-09
6.8069797e-09
6.9567758e-09
7.0578666e-09
7.1240903e-09
7.1696605e-09
7.2072012e-09
7.2343231e-09
7.2472517e-09
7.2551197e-09
7.2641232e-09
7.2791781e-09
7.2936606e-09
7.3085053e-09
7.3248136e-09
7.3592765e-09
7.3923578e-09
7.410474e-09
7.4180154e-09
7.4194268e-09
7.4099769e-09
7.3997489e-09
7.3949951e-09
7.3971009e-09
0.0011446819
0.0022488329
0.0022213113
0.0010098714
2.7146682e-05
4.7265113e-09
3.4646744e-09
3.3972092e-09
3.2282768e-09
3.2538116e-09
3.1957341e-09
3.2573611e-09
3.26591e-09
3.3512635e-09
3.4153111e-09
3.5319403e-09
3.6557624e-09
3.8261189e-09
4.0283839e-09
4.2848218e-09
4.5921354e-09
4.9541244e-09
5.3513914e-09
5.7574471e-09
6.137038e-09
6.463064e-09
6.7210777e-09
6.9115201e-09
7.0423655e-09
7.1263891e-09
7.1786524e-09
7.2136288e-09
7.2427343e-09
7.2610399e-09
7.2672391e-09
7.2701598e-09
7.2751043e-09
7.2879776e-09
7.3003094e-09
7.3134798e-09
7.3300812e-09
7.365801e-09
7.3956387e-09
7.4117301e-09
7.4182523e-09
7.4193662e-09
7.408593e-09
7.3989645e-09
7.394457e-09
7.3965847e-09
0.0011395611
0.0021997843
0.0021276175
0.00086940064
9.4231415e-06
4.3790521e-09
3.4968431e-09
3.4323011e-09
3.2678888e-09
3.2954657e-09
3.2411952e-09
3.3057755e-09
3.3188865e-09
3.4085732e-09
3.4789334e-09
3.6022841e-09
3.7354904e-09
3.9168533e-09
4.1332893e-09
4.4061392e-09
4.7315767e-09
5.1097142e-09
5.5172145e-09
5.9241e-09
6.2947349e-09
6.6043418e-09
6.8426113e-09
7.0129638e-09
7.1244059e-09
7.191387e-09
7.2304739e-09
7.2556279e-09
7.2757676e-09
7.2860414e-09
7.2860202e-09
7.2844202e-09
7.2856402e-09
7.296302e-09
7.3065933e-09
7.3182835e-09
7.3355025e-09
7.3720011e-09
7.3985719e-09
7.412721e-09
7.4183439e-09
7.4192792e-09
7.4073477e-09
7.3982153e-09
7.3939149e-09
7.3960384e-09
0.0011338528
0.0021457328
0.0020236008
0.00073965393
2.9210784e-06
4.2083345e-09
3.5308852e-09
3.4691853e-09
3.3093562e-09
3.3391229e-09
3.2890744e-09
3.3567867e-09
3.3747226e-09
3.4690845e-09
3.5462428e-09
3.6768661e-09
3.8203301e-09
4.0136811e-09
4.2454341e-09
4.5357398e-09
4.8797261e-09
5.2732388e-09
5.688859e-09
6.0936038e-09
6.4523424e-09
6.7435542e-09
6.9613721e-09
7.1109843e-09
7.2024749e-09
7.2528065e-09
7.2794187e-09
7.2952031e-09
7.306237e-09
7.3102501e-09
7.3035017e-09
7.2973429e-09
7.2959908e-09
7.30411e-09
7.312529e-09
7.3230583e-09
7.341254e-09
7.3778326e-09
7.4012385e-09
7.4135595e-09
7.4183957e-09
7.4189142e-09
7.4062051e-09
7.3974877e-09
7.3933597e-09
7.3954588e-09
0.0011276421
0.0020872957
0.0019065957
0.00062171746
8.7694909e-07
4.1313286e-09
3.5668767e-09
3.5079358e-09
3.3528338e-09
3.3850015e-09
3.3393777e-09
3.4105267e-09
3.4336266e-09
3.5329958e-09
3.617514e-09
3.7560857e-09
3.9107696e-09
4.1171903e-09
4.365457e-09
4.6742097e-09
5.0368876e-09
5.444565e-09
5.8657313e-09
6.2651043e-09
6.6091006e-09
6.8804258e-09
7.0771847e-09
7.2047432e-09
7.2763374e-09
7.310714e-09
7.3253931e-09
7.3321127e-09
7.3349723e-09
7.3331397e-09
7.3196281e-09
7.3092765e-09
7.3059805e-09
7.3113902e-09
7.3181414e-09
7.3278889e-09
7.3475865e-09
7.3831646e-09
7.403686e-09
7.4141499e-09
7.418173e-09
7.4182533e-09
7.4051536e-09
7.3967682e-09
7.392783e-09
7.394843e-09
0.0011212186
0.0020259413
0.0017791895
0.00051522643
2.7543653e-07
4.1051775e-09
3.6048618e-09
3.5486403e-09
3.3984357e-09
3.4332078e-09
3.3922639e-09
3.4671668e-09
3.4958078e-09
3.6005551e-09
3.693101e-09
3.8404642e-09
4.0073562e-09
4.2279951e-09
4.4939887e-09
4.8220158e-09
5.2031675e-09
5.6232704e-09
6.0469841e-09
6.4376069e-09
6.764337e-09
7.0147991e-09
7.1891052e-09
7.293742e-09
7.3456093e-09
7.3650766e-09
7.3685799e-09
7.3665088e-09
7.3623818e-09
7.3544814e-09
7.3343681e-09
7.3203054e-09
7.3154983e-09
7.3182187e-09
7.3234482e-09
7.332948e-09
7.3546047e-09
7.3877688e-09
7.4059205e-09
7.4145381e-09
7.4175301e-09
7.4172836e-09
7.4041713e-09
7.3960432e-09
7.3921781e-09
7.3941894e-09
0.001114746
0.0019624513
0.001642944
0.00041723612
9.8054373e-08
4.1069496e-09
3.6448025e-09
3.5913971e-09
3.4463313e-09
3.4839496e-09
3.4479767e-09
3.5268046e-09
3.5614606e-09
3.6720875e-09
3.7734367e-09
3.9305276e-09
4.1107018e-09
4.3467938e-09
4.6317158e-09
4.9796676e-09
5.3786305e-09
5.8089003e-09
6.2317487e-09
6.6102612e-09
6.9176749e-09
7.1463704e-09
7.2960813e-09
7.3773111e-09
7.410139e-09
7.4161411e-09
7.4093411e-09
7.3988007e-09
7.3881236e-09
7.3742698e-09
7.3478478e-09
7.3305351e-09
7.3242551e-09
7.3247749e-09
7.3284628e-09
7.3381116e-09
7.361632e-09
7.3918902e-09
7.4078907e-09
7.4149835e-09
7.4169781e-09
7.4160634e-09
7.4031866e-09
7.3952987e-09
7.3915458e-09
7.3934971e-09
0.0011081262
0.0018965005
0.0015056097
0.00033116084
4.2201201e-08
4.1245391e-09
3.6868705e-09
3.6364041e-09
3.4966617e-09
3.5374019e-09
3.5066904e-09
3.5896597e-09
3.6308816e-09
3.7480271e-09
3.8590491e-09
4.0268317e-09
4.2214613e-09
4.4742859e-09
4.7792635e-09
5.1474738e-09
5.5630497e-09
6.0006654e-09
6.4189571e-09
6.7822284e-09
7.0688511e-09
7.2737972e-09
7.3972947e-09
7.4550006e-09
7.4705966e-09
7.4644487e-09
7.4473049e-09
7.4290102e-09
7.4123259e-09
7.3925236e-09
7.3601966e-09
7.3400376e-09
7.3320266e-09
7.3311706e-09
7.3332095e-09
7.3434617e-09
7.3684482e-09
7.3955211e-09
7.4095136e-09
7.4153201e-09
7.4167197e-09
7.4145561e-09
7.4021496e-09
7.3945453e-09
7.3908921e-09
7.3927661e-09
0.0011012056
0.0018250672
0.0013714119
0.00025214973
2.1282338e-08
4.1512807e-09
3.7311229e-09
3.6837823e-09
3.5495239e-09
3.5936748e-09
3.5685655e-09
3.6560865e-09
3.7045543e-09
3.8288718e-09
3.9505144e-09
4.1300256e-09
4.3403556e-09
4.6112423e-09
4.9373076e-09
5.3257368e-09
5.7561374e-09
6.197745e-09
6.607652e-09
6.9529638e-09
7.217549e-09
7.3956355e-09
7.4918492e-09
7.5271272e-09
7.5280883e-09
7.5093125e-09
7.4826902e-09
7.457254e-09
7.434968e-09
7.4092896e-09
7.3714778e-09
7.348745e-09
7.3390462e-09
7.3372251e-09
7.3377457e-09
7.3487298e-09
7.3748552e-09
7.3987383e-09
7.4108753e-09
7.4156374e-09
7.4165901e-09
7.4129752e-09
7.4011253e-09
7.3937922e-09
7.3902204e-09
7.3919981e-09
0.0010949909
0.0017520958
0.001236114
0.00017981801
1.2723604e-08
4.1838118e-09
3.7774889e-09
3.7336126e-09
3.6051078e-09
3.6530223e-09
3.6339765e-09
3.7265158e-09
3.7829815e-09
3.91513e-09
4.0484533e-09
4.240798e-09
4.4681334e-09
4.7584166e-09
5.1063737e-09
5.5144654e-09
5.9572418e-09
6.3990205e-09
6.7968115e-09
7.1220104e-09
7.3621607e-09
7.5108361e-09
7.5793352e-09
7.5953272e-09
7.5817493e-09
7.5510239e-09
7.5155304e-09
7.4836167e-09
7.4561023e-09
7.424608e-09
7.381735e-09
7.3566604e-09
7.3454356e-09
7.3427881e-09
7.3421756e-09
7.3539629e-09
7.3807379e-09
7.4015562e-09
7.4120079e-09
7.4159371e-09
7.4165242e-09
7.411475e-09
7.4001365e-09
7.3930387e-09
7.3895314e-09
7.3911958e-09
0.0010901217
0.0016842899
0.0011031706
0.00011575532
8.8495496e-09
4.2200648e-09
3.8260855e-09
3.7860856e-09
3.6637435e-09
3.7158769e-09
3.7033873e-09
3.8014887e-09
3.8666799e-09
4.0074154e-09
4.1535229e-09
4.3598882e-09
4.6056287e-09
4.9166343e-09
5.2870106e-09
5.7136095e-09
6.1656678e-09
6.60346e-09
6.9856829e-09
7.2889989e-09
7.5009546e-09
7.6183905e-09
7.660687e-09
7.6597507e-09
7.6315504e-09
7.5895754e-09
7.545972e-09
7.5081897e-09
7.4757484e-09
7.4384909e-09
7.3910246e-09
7.3638491e-09
7.3513193e-09
7.3478028e-09
7.3465486e-09
7.3592647e-09
7.3859854e-09
7.4039965e-09
7.4129175e-09
7.416094e-09
7.416426e-09
7.4101012e-09
7.399175e-09
7.3922822e-09
7.3888276e-09
7.3903635e-09
0.0010858416
0.0016126392
0.00097370507
6.4295275e-05
6.9553015e-09
4.2591508e-09
3.8772642e-09
3.8416687e-09
3.7259413e-09
3.7826886e-09
3.7773175e-09
3.881482e-09
3.9562213e-09
4.1064362e-09
4.2664291e-09
4.4881026e-09
4.7536769e-09
5.0866539e-09
5.4794819e-09
5.9227407e-09
6.3802994e-09
6.8098758e-09
7.1735222e-09
7.4524345e-09
7.6324024e-09
7.7177345e-09
7.7376016e-09
7.7197319e-09
7.6775445e-09
7.6251288e-09
7.5741278e-09
7.5310637e-09
7.4939363e-09
7.4509342e-09
7.3994265e-09
7.3703297e-09
7.3566755e-09
7.3524866e-09
7.3508724e-09
7.3647845e-09
7.3904279e-09
7.4060414e-09
7.4136593e-09
7.4161851e-09
7.4162967e-09
7.4086989e-09
7.3982681e-09
7.3915275e-09
7.3881122e-09
7.3895055e-09
0.0010823731
0.0015379481
0.00085020856
3.0048084e-05
5.9807248e-09
4.3011034e-09
3.9317184e-09
3.9008009e-09
3.7921528e-09
3.8539434e-09
3.8562064e-09
3.9670178e-09
4.0522355e-09
4.2128859e-09
4.3879433e-09
4.6263122e-09
4.9132385e-09
5.2692336e-09
5.6840441e-09
6.1413224e-09
6.6000952e-09
7.0172863e-09
7.3598658e-09
7.6102603e-09
7.7553635e-09
7.8099373e-09
7.810116e-09
7.7751831e-09
7.7198593e-09
7.6578059e-09
7.6001342e-09
7.552325e-09
7.5106883e-09
7.4619461e-09
7.4069975e-09
7.3761273e-09
7.3615596e-09
7.3569523e-09
7.3552005e-09
7.3705508e-09
7.3939723e-09
7.4076686e-09
7.414269e-09
7.4162414e-09
7.4161038e-09
7.4074084e-09
7.3973995e-09
7.3907761e-09
7.3873882e-09
7.3886258e-09
0.00107988
0.0014598829
0.00073426979
1.2030731e-05
5.4675591e-09
4.3465398e-09
3.9898173e-09
3.9640231e-09
3.8627963e-09
3.9300213e-09
3.9405218e-09
4.0586891e-09
4.1553996e-09
4.3274696e-09
4.5188988e-09
4.7754819e-09
5.0852445e-09
5.4649446e-09
5.9005137e-09
6.3683741e-09
6.8237073e-09
7.2246525e-09
7.5435666e-09
7.7602844e-09
7.8689683e-09
7.8968102e-09
7.87754e-09
7.8262102e-09
7.7586409e-09
7.6877634e-09
7.6241226e-09
7.5720621e-09
7.5260368e-09
7.4716366e-09
7.4137039e-09
7.381284e-09
7.3660527e-09
7.3612847e-09
7.3595463e-09
7.3761973e-09
7.3970066e-09
7.4089077e-09
7.414521e-09
7.4161407e-09
7.4157988e-09
7.4062058e-09
7.3965776e-09
7.3900424e-09
7.3866638e-09
7.3877266e-09
0.0010785425
0.0013814703
0.00062712518
4.3537464e-06
5.2008707e-09
4.3971961e-09
4.0517507e-09
4.0315823e-09
3.9382162e-09
4.0113372e-09
4.0308053e-09
4.1572156e-09
4.266433e-09
4.4509662e-09
4.6602092e-09
4.9367024e-09
5.2707022e-09
5.6743342e-09
6.128613e-09
6.6028823e-09
7.0500128e-09
7.4312772e-09
7.7223105e-09
7.9012008e-09
7.9739929e-09
7.9787593e-09
7.9396607e-09
7.8729617e-09
7.7940604e-09
7.71516e-09
7.6462312e-09
7.5903601e-09
7.540006e-09
7.4800373e-09
7.4195604e-09
7.3858695e-09
7.3702391e-09
7.3655164e-09
7.3638984e-09
7.3815742e-09
7.3996366e-09
7.4098984e-09
7.4146176e-09
7.4158944e-09
7.4153735e-09
7.4050742e-09
7.3957907e-09
7.3893474e-09
7.3859613e-09
7.3868067e-09
0.0010777801
0.0012995271
0.00052910131
1.5142129e-06
5.0715893e-09
4.4529848e-09
4.1178134e-09
4.1037486e-09
4.0188054e-09
4.0984191e-09
4.1277275e-09
4.2632046e-09
4.3861304e-09
4.5842858e-09
4.8129351e-09
5.1111091e-09
5.4704965e-09
5.8975616e-09
6.3675439e-09
6.8434122e-09
7.2776896e-09
7.6362248e-09
7.8933384e-09
8.0317196e-09
8.0723658e-09
8.0549794e-09
7.9966426e-09
7.9156148e-09
7.8262967e-09
7.7401627e-09
7.6666037e-09
7.6073043e-09
7.5526176e-09
7.4871603e-09
7.4246091e-09
7.3899682e-09
7.3741825e-09
7.3696477e-09
7.3682038e-09
7.3861696e-09
7.4019599e-09
7.4107292e-09
7.4146115e-09
7.4155137e-09
7.4148058e-09
7.4040008e-09
7.3949911e-09
7.3886825e-09
7.3853549e-09
7.385865e-09
0.0010769015
0.0012092351
0.0004406677
5.4033718e-07
5.0193641e-09
4.5120699e-09
4.1880697e-09
4.1809418e-09
4.1052176e-09
4.1919772e-09
4.2320499e-09
4.3773475e-09
4.5152979e-09
4.7284647e-09
4.9782883e-09
5.2999394e-09
5.685482e-09
6.1346633e-09
6.6164332e-09
7.0886955e-09
7.5056919e-09
7.8374152e-09