/*--------------------------------*- C++ -*----------------------------------*\
  =========                 |
  \\      /  F ield         | OpenFOAM: The Open Source CFD Toolbox
   \\    /   O peration     | Website:  https://openfoam.org
    \\  /    A nd           | Version:  8
     \\/     M anipulation  |
\*---------------------------------------------------------------------------*/
FoamFile
{
    version     2.0;
    format      ascii;
    class       volScalarField;
    location    "0.10999";
    object      nuTilda;
}
// * * * * * * * * * * * * * * * * * * * * * * * * * * * * * * * * * * * * * //

dimensions      [0 2 -1 0 0 0 0];

internalField   nonuniform List<scalar> 
20000
(
0.0013026111
0.0032089232
0.0042786593
0.0046411073
0.0041422151
0.0023863742
0.00035928004
1.4134106e-05
1.022449e-05
1.0187519e-05
1.0085676e-05
1.0085654e-05
1.0027854e-05
1.0033309e-05
1.0011971e-05
1.001645e-05
1.00086e-05
1.0008476e-05
1.0004836e-05
1.0003854e-05
1.000238e-05
1.000167e-05
1.000107e-05
1.0000828e-05
1.0000747e-05
1.0000729e-05
1.0000759e-05
1.0000816e-05
1.0000828e-05
1.0000766e-05
1.0000671e-05
1.0000614e-05
1.0000662e-05
1.0000856e-05
1.0000916e-05
1.0000917e-05
1.0001058e-05
1.000133e-05
1.0001551e-05
1.0001672e-05
1.0001819e-05
1.0002033e-05
1.000174e-05
1.0001702e-05
1.0001604e-05
1.000145e-05
1.0001185e-05
1.0000831e-05
1.0000801e-05
1.0001049e-05
0.0013046086
0.0031853605
0.0042071861
0.0045216813
0.0039748356
0.0021353743
0.00028053627
1.2647512e-05
1.0219803e-05
1.0186199e-05
1.0084551e-05
1.0085394e-05
1.0027473e-05
1.0033145e-05
1.0011688e-05
1.0016351e-05
1.0008435e-05
1.0008349e-05
1.0004758e-05
1.0003796e-05
1.0002336e-05
1.0001634e-05
1.0001027e-05
1.0000772e-05
1.0000683e-05
1.0000657e-05
1.0000675e-05
1.0000709e-05
1.0000727e-05
1.0000708e-05
1.0000629e-05
1.0000585e-05
1.000063e-05
1.0000834e-05
1.00009e-05
1.0000905e-05
1.0001041e-05
1.0001313e-05
1.0001545e-05
1.0001687e-05
1.0001808e-05
1.000199e-05
1.0001731e-05
1.0001694e-05
1.0001589e-05
1.0001447e-05
1.0001193e-05
1.0000828e-05
1.0000817e-05
1.0001048e-05
0.0012968253
0.0031452737
0.0041286636
0.0044031216
0.0038180896
0.0019066952
0.00021693172
1.1741755e-05
1.0215764e-05
1.0184289e-05
1.0083426e-05
1.0084172e-05
1.0027211e-05
1.003289e-05
1.0011411e-05
1.001614e-05
1.0008275e-05
1.0008235e-05
1.0004692e-05
1.0003761e-05
1.0002324e-05
1.0001644e-05
1.0001045e-05
1.0000779e-05
1.0000681e-05
1.0000645e-05
1.0000669e-05
1.0000714e-05
1.0000732e-05
1.0000711e-05
1.0000633e-05
1.0000582e-05
1.0000625e-05
1.0000829e-05
1.0000901e-05
1.0000905e-05
1.0001032e-05
1.0001302e-05
1.0001542e-05
1.0001712e-05
1.0001825e-05
1.0001938e-05
1.0001722e-05
1.0001689e-05
1.0001579e-05
1.0001438e-05
1.000118e-05
1.0000821e-05
1.0000808e-05
1.0001048e-05
0.0012896557
0.0031071493
0.0040515171
0.0042840253
0.0036611744
0.0016875239
0.00016561035
1.1188383e-05
1.0214231e-05
1.0182069e-05
1.008018e-05
1.0081044e-05
1.0026966e-05
1.0032599e-05
1.0011153e-05
1.0015942e-05
1.0008123e-05
1.0008107e-05
1.0004622e-05
1.000371e-05
1.0002297e-05
1.000163e-05
1.0001037e-05
1.0000777e-05
1.0000679e-05
1.0000642e-05
1.000066e-05
1.0000701e-05
1.000072e-05
1.0000708e-05
1.0000632e-05
1.000058e-05
1.0000613e-05
1.0000816e-05
1.0000895e-05
1.0000901e-05
1.0001024e-05
1.0001293e-05
1.0001539e-05
1.0001735e-05
1.0001849e-05
1.0001896e-05
1.0001716e-05
1.000169e-05
1.0001577e-05
1.0001434e-05
1.0001179e-05
1.0000799e-05
1.0000794e-05
1.0001041e-05
0.0012822047
0.0030700614
0.0039761775
0.0041644909
0.0035041263
0.001480236
0.00012494034
1.0857724e-05
1.0210942e-05
1.0179242e-05
1.0076061e-05
1.0076375e-05
1.0026668e-05
1.0032286e-05
1.0010912e-05
1.0015723e-05
1.0007976e-05
1.0007978e-05
1.0004554e-05
1.0003662e-05
1.0002275e-05
1.0001624e-05
1.0001039e-05
1.000078e-05
1.0000681e-05
1.000064e-05
1.0000658e-05
1.0000699e-05
1.000072e-05
1.000071e-05
1.0000637e-05
1.0000581e-05
1.0000605e-05
1.0000806e-05
1.000089e-05
1.0000898e-05
1.0001016e-05
1.0001282e-05
1.0001531e-05
1.0001748e-05
1.0001863e-05
1.0001871e-05
1.0001708e-05
1.0001689e-05
1.0001571e-05
1.0001426e-05
1.000118e-05
1.0000781e-05
1.0000778e-05
1.0001028e-05
0.0012747359
0.0030341142
0.0039033455
0.0040462037
0.0033448003
0.001286
9.3370883e-05
1.0663841e-05
1.0210161e-05
1.017611e-05
1.0075261e-05
1.0072919e-05
1.00262e-05
1.0031944e-05
1.0010687e-05
1.0015493e-05
1.0007832e-05
1.0007843e-05
1.0004484e-05
1.0003609e-05
1.000225e-05
1.0001614e-05
1.0001037e-05
1.0000782e-05
1.0000682e-05
1.0000639e-05
1.0000653e-05
1.0000694e-05
1.0000715e-05
1.0000711e-05
1.0000641e-05
1.0000581e-05
1.0000598e-05
1.0000795e-05
1.0000886e-05
1.0000895e-05
1.0001008e-05
1.0001272e-05
1.0001522e-05
1.0001754e-05
1.0001878e-05
1.0001868e-05
1.00017e-05
1.0001688e-05
1.0001567e-05
1.0001417e-05
1.0001184e-05
1.0000766e-05
1.0000762e-05
1.0001009e-05
0.0012676188
0.0029992761
0.0038329569
0.0039346624
0.0031808481
0.0011053709
6.9337957e-05
1.0547379e-05
1.0206319e-05
1.0173887e-05
1.0073987e-05
1.0072327e-05
1.0025861e-05
1.0031554e-05
1.0010479e-05
1.001525e-05
1.0007694e-05
1.0007704e-05
1.0004415e-05
1.0003556e-05
1.0002226e-05
1.0001604e-05
1.0001037e-05
1.0000784e-05
1.0000683e-05
1.0000638e-05
1.0000649e-05
1.000069e-05
1.0000714e-05
1.0000712e-05
1.0000644e-05
1.0000582e-05
1.0000591e-05
1.0000784e-05
1.0000881e-05
1.0000892e-05
1.0001001e-05
1.0001261e-05
1.0001511e-05
1.0001756e-05
1.0001904e-05
1.0001869e-05
1.0001691e-05
1.0001688e-05
1.0001562e-05
1.0001406e-05
1.0001184e-05
1.0000756e-05
1.0000745e-05
1.0000987e-05
0.0012607279
0.0029641385
0.0037621814
0.0038165287
0.0030105733
0.00094003482
5.1471786e-05
1.0478263e-05
1.0202459e-05
1.0171265e-05
1.0072701e-05
1.0071359e-05
1.0025428e-05
1.0031136e-05
1.0010288e-05
1.0014995e-05
1.0007559e-05
1.0007562e-05
1.0004347e-05
1.00035e-05
1.0002201e-05
1.0001594e-05
1.0001036e-05
1.0000786e-05
1.0000685e-05
1.0000637e-05
1.0000646e-05
1.0000685e-05
1.0000712e-05
1.0000714e-05
1.0000647e-05
1.0000582e-05
1.0000585e-05
1.0000773e-05
1.0000876e-05
1.0000889e-05
1.0000994e-05
1.0001251e-05
1.0001499e-05
1.0001757e-05
1.0001937e-05
1.0001859e-05
1.0001681e-05
1.0001687e-05
1.0001557e-05
1.0001395e-05
1.0001184e-05
1.000075e-05
1.0000726e-05
1.000096e-05
0.0012538824
0.0029291018
0.00368972
0.0037001595
0.0028336099
0.00079100388
3.8465118e-05
1.0436278e-05
1.0198593e-05
1.0168573e-05
1.0071371e-05
1.0070326e-05
1.0025003e-05
1.0030685e-05
1.0010113e-05
1.0014731e-05
1.0007429e-05
1.0007416e-05
1.0004279e-05
1.0003444e-05
1.0002176e-05
1.0001583e-05
1.0001036e-05
1.0000788e-05
1.0000686e-05
1.0000636e-05
1.0000643e-05
1.0000682e-05
1.000071e-05
1.0000715e-05
1.0000649e-05
1.0000581e-05
1.0000579e-05
1.0000762e-05
1.000087e-05
1.0000886e-05
1.0000987e-05
1.0001242e-05
1.0001487e-05
1.0001756e-05
1.0001974e-05
1.0001839e-05
1.000167e-05
1.0001685e-05
1.0001553e-05
1.0001386e-05
1.0001183e-05
1.0000741e-05
1.0000707e-05
1.000093e-05
0.0012470533
0.0028947426
0.0036180856
0.003583059
0.0026491564
0.00066202827
2.9177678e-05
1.0409248e-05
1.0194716e-05
1.0165723e-05
1.0070017e-05
1.0069202e-05
1.0024566e-05
1.0030203e-05
1.0009954e-05
1.0014458e-05
1.0007304e-05
1.0007268e-05
1.0004212e-05
1.0003386e-05
1.0002151e-05
1.0001572e-05
1.0001036e-05
1.0000791e-05
1.0000687e-05
1.0000635e-05
1.000064e-05
1.0000678e-05
1.0000708e-05
1.0000715e-05
1.0000651e-05
1.000058e-05
1.0000574e-05
1.0000751e-05
1.0000864e-05
1.0000883e-05
1.000098e-05
1.0001234e-05
1.0001475e-05
1.0001751e-05
1.0002006e-05
1.0001819e-05
1.000166e-05
1.0001682e-05
1.0001549e-05
1.0001377e-05
1.0001183e-05
1.0000732e-05
1.0000686e-05
1.0000898e-05
0.0012406638
0.0028607308
0.0035467011
0.0034665792
0.0024576707
0.00054775087
2.2623788e-05
1.0390897e-05
1.0190831e-05
1.0162741e-05
1.0068635e-05
1.0068016e-05
1.0024123e-05
1.0029693e-05
1.0009811e-05
1.0014177e-05
1.0007184e-05
1.0007117e-05
1.0004145e-05
1.0003327e-05
1.0002127e-05
1.000156e-05
1.0001036e-05
1.0000793e-05
1.0000687e-05
1.0000634e-05
1.0000637e-05
1.0000675e-05
1.0000707e-05
1.0000715e-05
1.0000653e-05
1.000058e-05
1.0000569e-05
1.000074e-05
1.0000858e-05
1.0000879e-05
1.0000974e-05
1.0001226e-05
1.0001464e-05
1.0001739e-05
1.0002023e-05
1.0001808e-05
1.0001651e-05
1.0001678e-05
1.0001546e-05
1.0001369e-05
1.0001182e-05
1.0000722e-05
1.0000663e-05
1.0000863e-05
0.0012343547
0.002826376
0.0034745656
0.0033481576
0.0022609142
0.00044408808
1.8110655e-05
1.0377454e-05
1.018694e-05
1.0159642e-05
1.0067232e-05
1.0066776e-05
1.0023674e-05
1.0029157e-05
1.0009683e-05
1.0013889e-05
1.0007067e-05
1.0006964e-05
1.000408e-05
1.0003268e-05
1.0002102e-05
1.0001549e-05
1.0001037e-05
1.0000796e-05
1.0000688e-05
1.0000633e-05
1.0000634e-05
1.0000672e-05
1.0000707e-05
1.0000714e-05
1.0000654e-05
1.0000579e-05
1.0000565e-05
1.0000729e-05
1.0000851e-05
1.0000875e-05
1.0000969e-05
1.0001219e-05
1.0001454e-05
1.0001721e-05
1.0002031e-05
1.0001804e-05
1.0001641e-05
1.0001672e-05
1.0001543e-05
1.000136e-05
1.000118e-05
1.0000713e-05
1.0000641e-05
1.0000828e-05
0.0012280725
0.0027916128
0.0034009892
0.0032231104
0.002060529
0.00035353037
1.512271e-05
1.0366714e-05
1.0183038e-05
1.0156427e-05
1.006581e-05
1.0065482e-05
1.0023221e-05
1.0028596e-05
1.000957e-05
1.0013595e-05
1.0006954e-05
1.0006809e-05
1.0004015e-05
1.0003208e-05
1.0002078e-05
1.0001537e-05
1.0001038e-05
1.0000798e-05
1.0000689e-05
1.0000633e-05
1.0000632e-05
1.0000669e-05
1.0000705e-05
1.0000713e-05
1.0000655e-05
1.0000579e-05
1.0000561e-05
1.0000718e-05
1.0000844e-05
1.0000871e-05
1.0000963e-05
1.0001212e-05
1.0001446e-05
1.0001699e-05
1.000203e-05
1.0001804e-05
1.0001632e-05
1.0001663e-05
1.0001539e-05
1.0001353e-05
1.0001174e-05
1.0000703e-05
1.0000619e-05
1.0000793e-05
0.0012218291
0.0027562988
0.003325927
0.003099807
0.00185964
0.00027634502
1.3216328e-05
1.0357442e-05
1.0179134e-05
1.0153126e-05
1.0064374e-05
1.0064144e-05
1.0022767e-05
1.0028014e-05
1.000947e-05
1.0013294e-05
1.0006845e-05
1.0006647e-05
1.0003951e-05
1.0003148e-05
1.0002054e-05
1.0001525e-05
1.0001038e-05
1.00008e-05
1.000069e-05
1.0000633e-05
1.000063e-05
1.0000666e-05
1.0000704e-05
1.0000711e-05
1.0000655e-05
1.0000579e-05
1.0000557e-05
1.0000707e-05
1.0000836e-05
1.0000866e-05
1.0000957e-05
1.0001205e-05
1.0001439e-05
1.0001678e-05
1.0002019e-05
1.0001807e-05
1.0001624e-05
1.0001645e-05
1.0001535e-05
1.000135e-05
1.0001151e-05
1.0000694e-05
1.0000597e-05
1.0000759e-05
0.0012157418
0.0027209727
0.0032468953
0.0029767343
0.0016597637
0.0002118378
1.2038363e-05
1.0348775e-05
1.0175226e-05
1.0149734e-05
1.0062927e-05
1.0062764e-05
1.0022312e-05
1.0027411e-05
1.0009382e-05
1.0012988e-05
1.0006739e-05
1.0006483e-05
1.0003888e-05
1.0003089e-05
1.0002031e-05
1.0001513e-05
1.0001039e-05
1.0000803e-05
1.000069e-05
1.0000632e-05
1.0000628e-05
1.0000664e-05
1.0000701e-05
1.0000709e-05
1.0000655e-05
1.0000578e-05
1.0000554e-05
1.0000696e-05
1.0000828e-05
1.000086e-05
1.0000951e-05
1.0001197e-05
1.0001434e-05
1.0001659e-05
1.0001989e-05
1.0001814e-05
1.0001615e-05
1.0001617e-05
1.0001529e-05
1.0001347e-05
1.0001124e-05
1.0000684e-05
1.0000577e-05
1.0000726e-05
0.0012099622
0.0026871324
0.0031730303
0.0028519867
0.0014634618
0.00015919724
1.1332026e-05
1.0340192e-05
1.0171321e-05
1.0146264e-05
1.0061474e-05
1.0061345e-05
1.0021859e-05
1.002679e-05
1.0009307e-05
1.0012677e-05
1.0006637e-05
1.0006319e-05
1.0003826e-05
1.0003029e-05
1.0002008e-05
1.0001501e-05
1.000104e-05
1.0000805e-05
1.0000691e-05
1.0000632e-05
1.0000626e-05
1.0000661e-05
1.0000699e-05
1.0000707e-05
1.0000655e-05
1.0000578e-05
1.0000552e-05
1.0000686e-05
1.000082e-05
1.0000854e-05
1.0000944e-05
1.000119e-05
1.0001428e-05
1.0001645e-05
1.0001942e-05
1.000182e-05
1.0001605e-05
1.0001593e-05
1.000152e-05
1.0001344e-05
1.0001091e-05
1.0000672e-05
1.0000557e-05
1.0000696e-05
0.0012041527
0.0026524499
0.0030974145
0.0027234951
0.0012737351
0.00011745577
1.0921398e-05
1.0331637e-05
1.0167427e-05
1.0142737e-05
1.0060018e-05
1.0059897e-05
1.0021408e-05
1.0026153e-05
1.0009242e-05
1.0012363e-05
1.0006538e-05
1.0006155e-05
1.0003765e-05
1.000297e-05
1.0001985e-05
1.000149e-05
1.0001041e-05
1.0000807e-05
1.0000692e-05
1.0000631e-05
1.0000624e-05
1.0000659e-05
1.0000696e-05
1.0000704e-05
1.0000654e-05
1.0000578e-05
1.0000549e-05
1.0000675e-05
1.0000811e-05
1.0000847e-05
1.0000938e-05
1.0001182e-05
1.0001422e-05
1.0001633e-05
1.0001926e-05
1.0001821e-05
1.0001596e-05
1.0001575e-05
1.0001507e-05
1.0001338e-05
1.0001062e-05
1.0000658e-05
1.0000537e-05
1.0000667e-05
0.0011983863
0.0026173891
0.0030203454
0.0025897988
0.001093174
8.5193899e-05
1.0688082e-05
1.0323812e-05
1.0163551e-05
1.0139155e-05
1.0058563e-05
1.0058421e-05
1.0020962e-05
1.0025503e-05
1.0009187e-05
1.0012046e-05
1.0006441e-05
1.0005992e-05
1.0003705e-05
1.0002911e-05
1.0001963e-05
1.0001479e-05
1.0001043e-05
1.0000809e-05
1.0000693e-05
1.0000631e-05
1.0000623e-05
1.0000655e-05
1.0000692e-05
1.00007e-05
1.0000653e-05
1.0000578e-05
1.0000547e-05
1.0000665e-05
1.0000802e-05
1.000084e-05
1.000093e-05
1.0001175e-05
1.0001415e-05
1.000162e-05
1.0001919e-05
1.0001818e-05
1.0001588e-05
1.000156e-05
1.0001491e-05
1.0001332e-05
1.0001035e-05
1.0000642e-05
1.0000518e-05
1.0000639e-05
0.0011926194
0.0025820234
0.0029417138
0.0024513886
0.00092459257
6.1078875e-05
1.0557653e-05
1.0316478e-05
1.0159697e-05
1.0135533e-05
1.0057111e-05
1.0056924e-05
1.0020522e-05
1.0024842e-05
1.0009141e-05
1.0011728e-05
1.0006346e-05
1.0005831e-05
1.0003646e-05
1.0002853e-05
1.0001941e-05
1.0001468e-05
1.0001044e-05
1.0000811e-05
1.0000693e-05
1.000063e-05
1.0000621e-05
1.0000652e-05
1.0000688e-05
1.0000696e-05
1.0000652e-05
1.0000577e-05
1.0000546e-05
1.0000655e-05
1.0000792e-05
1.0000832e-05
1.0000923e-05
1.0001167e-05
1.000141e-05
1.0001606e-05
1.00019e-05
1.0001815e-05
1.000158e-05
1.0001546e-05
1.0001474e-05
1.0001325e-05
1.0001013e-05
1.0000624e-05
1.0000499e-05
1.0000613e-05
0.0011869113
0.0025467986
0.0028616307
0.0023095406
0.00076989226
4.3671359e-05
1.0484801e-05
1.0309029e-05
1.0155865e-05
1.0131882e-05
1.0055666e-05
1.0055408e-05
1.0020088e-05
1.0024174e-05
1.0009101e-05
1.0011409e-05
1.0006253e-05
1.0005674e-05
1.0003588e-05
1.0002796e-05
1.000192e-05
1.0001457e-05
1.0001045e-05
1.0000813e-05
1.0000694e-05
1.0000629e-05
1.0000618e-05
1.0000648e-05
1.0000683e-05
1.0000692e-05
1.000065e-05
1.0000577e-05
1.0000544e-05
1.0000645e-05
1.0000783e-05
1.0000823e-05
1.0000915e-05
1.0001159e-05
1.0001405e-05
1.0001594e-05
1.0001882e-05
1.0001814e-05
1.0001574e-05
1.0001532e-05
1.0001454e-05
1.0001316e-05
1.0000994e-05
1.0000605e-05
1.000048e-05
1.0000588e-05
0.0011813986
0.0025123052
0.0027813288
0.0021600421
0.00063074433
3.1648246e-05
1.0442783e-05
1.0301603e-05
1.015206e-05
1.0128234e-05
1.0054231e-05
1.005388e-05
1.0019663e-05
1.00235e-05
1.0009067e-05
1.0011092e-05
1.0006162e-05
1.0005522e-05
1.000353e-05
1.0002741e-05
1.0001899e-05
1.0001446e-05
1.0001046e-05
1.0000815e-05
1.0000695e-05
1.0000628e-05
1.0000615e-05
1.0000643e-05
1.0000679e-05
1.0000687e-05
1.0000649e-05
1.0000577e-05
1.0000543e-05
1.0000635e-05
1.0000773e-05
1.0000815e-05
1.0000906e-05
1.0001151e-05
1.00014e-05
1.0001582e-05
1.0001857e-05
1.0001813e-05
1.0001567e-05
1.0001516e-05
1.0001434e-05
1.0001298e-05
1.0000977e-05
1.0000586e-05
1.0000461e-05
1.0000565e-05
0.0011761288
0.0024784989
0.002707949
0.0020030503
0.00051095846
2.3797217e-05
1.0416598e-05
1.0294172e-05
1.0148282e-05
1.0124571e-05
1.0052809e-05
1.0052346e-05
1.0019248e-05
1.0022823e-05
1.0009037e-05
1.0010776e-05
1.0006072e-05
1.0005379e-05
1.0003473e-05
1.0002686e-05
1.0001879e-05
1.0001436e-05
1.0001047e-05
1.0000817e-05
1.0000695e-05
1.0000627e-05
1.0000612e-05
1.0000639e-05
1.0000673e-05
1.0000682e-05
1.0000647e-05
1.0000577e-05
1.0000542e-05
1.0000626e-05
1.0000763e-05
1.0000806e-05
1.0000897e-05
1.0001142e-05
1.0001396e-05
1.0001574e-05
1.0001825e-05
1.0001811e-05
1.0001558e-05
1.00015e-05
1.000141e-05
1.000128e-05
1.0000966e-05
1.0000567e-05
1.0000443e-05
1.0000543e-05
0.0011710444
0.0024436418
0.0026307577
0.0018376198
0.00040879803
1.8779953e-05
1.0398567e-05
1.0286723e-05
1.0144528e-05
1.0120906e-05
1.0051402e-05
1.0050809e-05
1.0018843e-05
1.0022147e-05
1.0009009e-05
1.0010463e-05
1.0005983e-05
1.0005237e-05
1.0003417e-05
1.0002634e-05
1.000186e-05
1.0001426e-05
1.0001048e-05
1.0000818e-05
1.0000696e-05
1.0000625e-05
1.0000609e-05
1.0000634e-05
1.0000668e-05
1.0000677e-05
1.0000645e-05
1.0000577e-05
1.0000541e-05
1.0000616e-05
1.0000753e-05
1.0000796e-05
1.0000887e-05
1.0001132e-05
1.0001392e-05
1.0001567e-05
1.0001786e-05
1.0001804e-05
1.0001548e-05
1.000148e-05
1.0001385e-05
1.0001258e-05
1.0000946e-05
1.0000552e-05
1.0000425e-05
1.0000522e-05
0.0011661791
0.00240826
0.0025533544
0.0016663684
0.00032134847
1.5545257e-05
1.0384779e-05
1.0279269e-05
1.0140801e-05
1.0117257e-05
1.0050014e-05
1.0049276e-05
1.0018451e-05
1.0021474e-05
1.0008983e-05
1.0010153e-05
1.0005895e-05
1.0005099e-05
1.0003361e-05
1.0002582e-05
1.000184e-05
1.0001416e-05
1.0001048e-05
1.000082e-05
1.0000696e-05
1.0000624e-05
1.0000605e-05
1.0000628e-05
1.0000662e-05
1.0000672e-05
1.0000643e-05
1.0000577e-05
1.0000539e-05
1.0000606e-05
1.0000743e-05
1.0000786e-05
1.0000877e-05
1.0001122e-05
1.0001387e-05
1.0001559e-05
1.0001741e-05
1.0001796e-05
1.0001537e-05
1.0001459e-05
1.0001355e-05
1.0001229e-05
1.0000924e-05
1.0000542e-05
1.0000408e-05
1.0000503e-05
0.0011615133
0.0023720462
0.0024743481
0.0014918781
0.00024841253
1.3526424e-05
1.0373265e-05
1.0271781e-05
1.0137093e-05
1.0113614e-05
1.0048646e-05
1.0047746e-05
1.0018072e-05
1.0020805e-05
1.0008958e-05
1.0009849e-05
1.0005807e-05
1.0004964e-05
1.0003305e-05
1.0002533e-05
1.0001822e-05
1.0001407e-05
1.0001049e-05
1.0000822e-05
1.0000697e-05
1.0000622e-05
1.0000601e-05
1.0000623e-05
1.0000655e-05
1.0000667e-05
1.0000641e-05
1.0000577e-05
1.0000538e-05
1.0000597e-05
1.0000732e-05
1.0000776e-05
1.0000867e-05
1.0001111e-05
1.0001382e-05
1.0001551e-05
1.0001699e-05
1.0001788e-05
1.0001527e-05
1.0001436e-05
1.0001322e-05
1.0001197e-05
1.0000899e-05
1.0000539e-05
1.0000392e-05
1.0000486e-05
0.001157079
0.0023347549
0.0023938061
0.0013227217
0.00018925035
1.2302033e-05
1.0362957e-05
1.026428e-05
1.0133406e-05
1.0109998e-05
1.0047302e-05
1.0046229e-05
1.0017707e-05
1.0020144e-05
1.0008931e-05
1.0009549e-05
1.000572e-05
1.0004832e-05
1.0003251e-05
1.0002485e-05
1.0001803e-05
1.0001397e-05
1.0001049e-05
1.0000824e-05
1.0000697e-05
1.000062e-05
1.0000597e-05
1.0000617e-05
1.0000649e-05
1.0000662e-05
1.0000638e-05
1.0000577e-05
1.0000537e-05
1.0000587e-05
1.0000722e-05
1.0000766e-05
1.0000857e-05
1.00011e-05
1.0001377e-05
1.0001541e-05
1.0001661e-05
1.000176e-05
1.0001519e-05
1.0001416e-05
1.0001291e-05
1.0001163e-05
1.000087e-05
1.0000532e-05
1.0000377e-05
1.0000469e-05
0.0011525777
0.0022943875
0.0023101402
0.0011632906
0.00014220291
1.1575034e-05
1.0353239e-05
1.025678e-05
1.0129738e-05
1.0106411e-05
1.0045982e-05
1.0044728e-05
1.0017358e-05
1.0019493e-05
1.0008903e-05
1.0009257e-05
1.0005633e-05
1.0004705e-05
1.0003197e-05
1.0002439e-05
1.0001785e-05
1.0001388e-05
1.0001049e-05
1.0000826e-05
1.0000698e-05
1.0000618e-05
1.0000593e-05
1.000061e-05
1.0000643e-05
1.0000657e-05
1.0000636e-05
1.0000576e-05
1.0000536e-05
1.0000577e-05
1.0000711e-05
1.0000755e-05
1.0000846e-05
1.0001089e-05
1.000137e-05
1.0001532e-05
1.0001628e-05
1.0001731e-05
1.0001511e-05
1.0001402e-05
1.0001264e-05
1.0001129e-05
1.0000843e-05
1.0000522e-05
1.0000362e-05
1.0000454e-05
0.0011478299
0.0022496395
0.0022221064
0.0010133416
0.00010539043
1.1149907e-05
1.034378e-05
1.0249287e-05
1.0126079e-05
1.0102856e-05
1.0044683e-05
1.0043243e-05
1.0017024e-05
1.0018855e-05
1.0008873e-05
1.0008971e-05
1.0005545e-05
1.0004582e-05
1.0003144e-05
1.0002394e-05
1.0001767e-05
1.0001378e-05
1.0001049e-05
1.0000828e-05
1.0000699e-05
1.0000615e-05
1.0000588e-05
1.0000603e-05
1.0000636e-05
1.0000652e-05
1.0000634e-05
1.0000576e-05
1.0000536e-05
1.0000568e-05
1.0000699e-05
1.0000743e-05
1.0000835e-05
1.0001076e-05
1.0001363e-05
1.0001523e-05
1.0001601e-05
1.0001704e-05
1.0001503e-05
1.0001393e-05
1.0001245e-05
1.0001093e-05
1.0000819e-05
1.000051e-05
1.0000349e-05
1.0000439e-05
0.0011426957
0.0022006158
0.0021284703
0.00087395287
7.7312363e-05
1.0903816e-05
1.0334488e-05
1.0241807e-05
1.0122437e-05
1.0099345e-05
1.004341e-05
1.0041759e-05
1.0016709e-05
1.001823e-05
1.0008838e-05
1.000869e-05
1.0005458e-05
1.0004463e-05
1.0003092e-05
1.0002351e-05
1.0001748e-05
1.0001369e-05
1.0001049e-05
1.000083e-05
1.0000699e-05
1.0000612e-05
1.0000582e-05
1.0000596e-05
1.000063e-05
1.0000646e-05
1.0000631e-05
1.0000575e-05
1.0000536e-05
1.000056e-05
1.0000688e-05
1.0000731e-05
1.0000824e-05
1.0001063e-05
1.0001355e-05
1.0001516e-05
1.000158e-05
1.0001676e-05
1.0001494e-05
1.0001387e-05
1.0001229e-05
1.0001059e-05
1.0000798e-05
1.0000497e-05
1.0000335e-05
1.0000424e-05
0.0011369764
0.0021465946
0.0020245277
0.00074574716
5.6397744e-05
1.0760498e-05
1.032534e-05
1.0234337e-05
1.0118805e-05
1.0095874e-05
1.0042167e-05
1.0040294e-05
1.0016411e-05
1.0017621e-05
1.0008797e-05
1.0008393e-05
1.000537e-05
1.0004348e-05
1.0003041e-05
1.000231e-05
1.000173e-05
1.000136e-05
1.0001049e-05
1.0000833e-05
1.00007e-05
1.0000609e-05
1.0000576e-05
1.0000589e-05
1.0000623e-05
1.0000641e-05
1.0000629e-05
1.0000574e-05
1.0000535e-05
1.0000552e-05
1.0000676e-05
1.0000718e-05
1.0000813e-05
1.0001049e-05
1.0001346e-05
1.0001511e-05
1.0001564e-05
1.0001648e-05
1.0001484e-05
1.0001379e-05
1.0001222e-05
1.0001032e-05
1.0000776e-05
1.0000483e-05
1.0000323e-05
1.000041e-05
0.0011307561
0.0020881933
0.0019076215
0.00063002376
4.1272436e-05
1.0674959e-05
1.0316344e-05
1.0226881e-05
1.0115184e-05
1.0092452e-05
1.0040955e-05
1.0038856e-05
1.0016132e-05
1.0017028e-05
1.0008752e-05
1.0008091e-05
1.0005284e-05
1.0004238e-05
1.000299e-05
1.0002269e-05
1.0001712e-05
1.000135e-05
1.0001048e-05
1.0000836e-05
1.00007e-05
1.0000605e-05
1.000057e-05
1.0000582e-05
1.0000617e-05
1.0000635e-05
1.0000626e-05
1.0000573e-05
1.0000534e-05
1.0000545e-05
1.0000663e-05
1.0000705e-05
1.0000801e-05
1.0001034e-05
1.0001336e-05
1.0001506e-05
1.0001553e-05
1.0001622e-05
1.0001474e-05
1.0001365e-05
1.0001215e-05
1.0001013e-05
1.0000757e-05
1.000047e-05
1.0000311e-05
1.0000396e-05
0.0011243227
0.0020268801
0.0017803456
0.00052674952
3.0689685e-05
1.0621288e-05
1.0307466e-05
1.0219448e-05
1.0111583e-05
1.008909e-05
1.0039778e-05
1.003745e-05
1.0015873e-05
1.0016454e-05
1.00087e-05
1.0007827e-05
1.0005198e-05
1.0004133e-05
1.000294e-05
1.000223e-05
1.0001693e-05
1.000134e-05
1.0001048e-05
1.0000839e-05
1.00007e-05
1.0000601e-05
1.0000565e-05
1.0000576e-05
1.0000611e-05
1.0000629e-05
1.0000624e-05
1.0000572e-05
1.0000531e-05
1.0000539e-05
1.000065e-05
1.0000691e-05
1.0000788e-05
1.0001018e-05
1.0001325e-05
1.00015e-05
1.0001543e-05
1.0001597e-05
1.0001465e-05
1.0001347e-05
1.0001203e-05
1.0000997e-05
1.0000743e-05
1.0000459e-05
1.00003e-05
1.0000382e-05
0.0011178388
0.0019634365
0.001644273
0.00043360263
2.358645e-05
1.0584895e-05
1.0298651e-05
1.0212044e-05
1.010801e-05
1.0085794e-05
1.0038637e-05
1.003608e-05
1.0015635e-05
1.0015901e-05
1.0008642e-05
1.0007595e-05
1.0005112e-05
1.0004032e-05
1.000289e-05
1.0002191e-05
1.0001673e-05
1.000133e-05
1.0001047e-05
1.0000843e-05
1.0000699e-05
1.0000598e-05
1.0000561e-05
1.000057e-05
1.0000604e-05
1.0000623e-05
1.000062e-05
1.000057e-05
1.0000529e-05
1.0000532e-05
1.0000637e-05
1.0000677e-05
1.0000775e-05
1.0001002e-05
1.0001314e-05
1.0001495e-05
1.0001521e-05
1.0001572e-05
1.0001457e-05
1.0001331e-05
1.0001183e-05
1.0000984e-05
1.0000731e-05
1.000045e-05
1.0000289e-05
1.0000368e-05
0.0011112071
0.001897539
0.0015071589
0.00035444252
1.902192e-05
1.0557683e-05
1.0289844e-05
1.0204671e-05
1.0104465e-05
1.0082567e-05
1.0037533e-05
1.0034748e-05
1.0015418e-05
1.0015368e-05
1.0008578e-05
1.000737e-05
1.0005026e-05
1.0003935e-05
1.0002841e-05
1.0002153e-05
1.0001653e-05
1.000132e-05
1.0001047e-05
1.0000847e-05
1.0000698e-05
1.0000595e-05
1.0000557e-05
1.0000563e-05
1.0000596e-05
1.0000617e-05
1.0000616e-05
1.0000568e-05
1.0000525e-05
1.0000526e-05
1.0000623e-05
1.0000663e-05
1.0000761e-05
1.0000985e-05
1.00013e-05
1.0001492e-05
1.0001501e-05
1.0001549e-05
1.000145e-05
1.0001318e-05
1.0001161e-05
1.0000973e-05
1.0000722e-05
1.0000444e-05
1.0000279e-05
1.0000354e-05
0.0011042747
0.0018261705
0.0013732381
0.00028540011
1.5963026e-05
1.0535116e-05
1.0281004e-05
1.0197336e-05
1.0100949e-05
1.0079412e-05
1.0036469e-05
1.0033457e-05
1.0015219e-05
1.0014855e-05
1.0008508e-05
1.0007156e-05
1.0004939e-05
1.0003842e-05
1.0002791e-05
1.0002115e-05
1.0001632e-05
1.0001309e-05
1.0001047e-05
1.0000851e-05
1.0000698e-05
1.0000595e-05
1.0000553e-05
1.0000554e-05
1.0000587e-05
1.000061e-05
1.0000612e-05
1.0000565e-05
1.0000522e-05
1.0000519e-05
1.0000609e-05
1.0000648e-05
1.0000747e-05
1.0000967e-05
1.0001284e-05
1.0001485e-05
1.0001487e-05
1.0001539e-05
1.0001448e-05
1.0001307e-05
1.0001139e-05
1.0000964e-05
1.0000716e-05
1.000044e-05
1.000027e-05
1.000034e-05
0.0010980418
0.0017532727
0.0012383092
0.00022637058
1.3978703e-05
1.0514999e-05
1.0272123e-05
1.0190047e-05
1.0097473e-05
1.0076334e-05
1.0035445e-05
1.0032212e-05
1.0015039e-05
1.0014326e-05
1.000843e-05
1.0006952e-05
1.0004852e-05
1.0003753e-05
1.0002742e-05
1.0002077e-05
1.0001611e-05
1.0001299e-05
1.0001048e-05
1.0000855e-05
1.00007e-05
1.0000595e-05
1.0000549e-05
1.0000545e-05
1.0000578e-05
1.0000604e-05
1.0000607e-05
1.0000563e-05
1.0000518e-05
1.0000513e-05
1.0000594e-05
1.0000633e-05
1.0000734e-05
1.0000948e-05
1.0001265e-05
1.0001481e-05
1.0001475e-05
1.0001529e-05
1.000145e-05
1.0001301e-05
1.000112e-05
1.0000956e-05
1.000071e-05
1.0000436e-05
1.0000261e-05
1.0000325e-05
0.0010931455
0.0016855415
0.0011058586
0.00017709884
1.2713276e-05
1.0496021e-05
1.0263202e-05
1.0182816e-05
1.0094051e-05
1.0073341e-05
1.0034467e-05
1.0031014e-05
1.0014884e-05
1.0013802e-05
1.0008347e-05
1.000676e-05
1.0004765e-05
1.0003667e-05
1.0002691e-05
1.0002039e-05
1.0001588e-05
1.0001288e-05
1.0001049e-05
1.0000859e-05
1.0000704e-05
1.0000596e-05
1.0000543e-05
1.0000534e-05
1.0000568e-05
1.0000598e-05
1.0000603e-05
1.0000559e-05
1.0000513e-05
1.0000506e-05
1.0000578e-05
1.0000618e-05
1.000072e-05
1.0000929e-05
1.0001243e-05
1.0001479e-05
1.0001465e-05
1.0001517e-05
1.0001454e-05
1.0001299e-05
1.0001107e-05
1.0000947e-05
1.0000704e-05
1.0000431e-05
1.0000253e-05
1.000031e-05
0.0010888334
0.0016139799
0.00097706446
0.00013679511
1.1921002e-05
1.0477407e-05
1.0254249e-05
1.0175652e-05
1.0090688e-05
1.0070436e-05
1.0033535e-05
1.0029865e-05
1.0014754e-05
1.0013327e-05
1.0008258e-05
1.0006578e-05
1.0004678e-05
1.0003583e-05
1.000264e-05
1.0002e-05
1.0001565e-05
1.0001278e-05
1.0001052e-05
1.0000865e-05
1.0000709e-05
1.0000596e-05
1.0000535e-05
1.0000523e-05
1.0000557e-05
1.0000591e-05
1.0000598e-05
1.0000556e-05
1.0000508e-05
1.0000499e-05
1.0000561e-05
1.0000602e-05
1.0000705e-05
1.000091e-05
1.000122e-05
1.0001476e-05
1.0001452e-05
1.0001502e-05
1.0001459e-05
1.00013e-05
1.0001099e-05
1.0000937e-05
1.0000696e-05
1.0000426e-05
1.0000244e-05
1.0000295e-05
0.0010853268
0.0015393945
0.0008544889
0.00010453135
1.1431366e-05
1.0458829e-05
1.0245297e-05
1.0168563e-05
1.0087388e-05
1.006762e-05
1.0032652e-05
1.0028769e-05
1.0014649e-05
1.0012914e-05
1.0008167e-05
1.0006405e-05
1.0004591e-05
1.0003501e-05
1.0002587e-05
1.000196e-05
1.0001541e-05
1.0001268e-05
1.0001055e-05
1.0000872e-05
1.0000716e-05
1.0000594e-05
1.0000525e-05
1.0000511e-05
1.0000546e-05
1.0000584e-05
1.0000592e-05
1.0000551e-05
1.0000502e-05
1.0000491e-05
1.0000543e-05
1.0000585e-05
1.0000691e-05
1.0000891e-05
1.0001194e-05
1.0001471e-05
1.0001437e-05
1.0001484e-05
1.0001461e-05
1.0001302e-05
1.0001094e-05
1.0000927e-05
1.0000688e-05
1.0000419e-05
1.0000236e-05
1.000028e-05
0.0010827889
0.0014614562
0.00073982614
7.9224183e-05
1.1129748e-05
1.0440401e-05
1.0236295e-05
1.0161559e-05
1.0084159e-05
1.0064899e-05
1.0031819e-05
1.0027735e-05
1.0014571e-05
1.0012536e-05
1.0008071e-05
1.0006243e-05
1.0004504e-05
1.000342e-05
1.0002533e-05
1.0001919e-05
1.0001517e-05
1.0001258e-05
1.0001058e-05
1.0000877e-05
1.0000722e-05
1.000059e-05
1.0000515e-05
1.0000499e-05
1.0000534e-05
1.0000575e-05
1.0000585e-05
1.0000546e-05
1.0000495e-05
1.0000484e-05
1.0000524e-05
1.0000568e-05
1.0000675e-05
1.0000872e-05
1.0001167e-05
1.0001468e-05
1.0001427e-05
1.0001466e-05
1.0001459e-05
1.0001302e-05
1.0001092e-05
1.0000917e-05
1.000068e-05
1.0000411e-05
1.0000228e-05
1.0000265e-05
0.0010813989
0.0013831898
0.00063446274
5.9801107e-05
1.0942426e-05
1.0422729e-05
1.0227257e-05
1.0154654e-05
1.008101e-05
1.006228e-05
1.0031041e-05
1.0026791e-05
1.0014521e-05
1.0012181e-05
1.0007971e-05
1.0006089e-05
1.0004415e-05
1.0003339e-05
1.0002477e-05
1.0001877e-05
1.0001492e-05
1.0001248e-05
1.0001058e-05
1.0000882e-05
1.0000725e-05
1.0000584e-05
1.0000505e-05
1.0000486e-05
1.0000522e-05
1.0000566e-05
1.0000578e-05
1.000054e-05
1.0000488e-05
1.0000477e-05
1.0000504e-05
1.0000551e-05
1.0000659e-05
1.0000854e-05
1.0001137e-05
1.0001465e-05
1.0001413e-05
1.000145e-05
1.0001455e-05
1.0001302e-05
1.0001092e-05
1.0000907e-05
1.0000671e-05
1.0000404e-05
1.0000219e-05
1.000025e-05
0.0010805788
0.0013014266
0.00053894929
4.5222224e-05
1.0823292e-05
1.0405848e-05
1.0218149e-05
1.0147862e-05
1.0077947e-05
1.0059767e-05
1.0030319e-05
1.0025897e-05
1.0014499e-05
1.0011853e-05
1.0007867e-05
1.0005942e-05
1.0004325e-05
1.0003258e-05
1.0002419e-05
1.0001835e-05
1.0001467e-05
1.0001238e-05
1.0001056e-05
1.0000888e-05
1.0000725e-05
1.0000578e-05
1.0000495e-05
1.0000474e-05
1.0000509e-05
1.0000557e-05
1.0000571e-05
1.0000533e-05
1.000048e-05
1.0000469e-05
1.0000484e-05
1.0000532e-05
1.0000642e-05
1.0000836e-05
1.0001105e-05
1.000143e-05
1.0001402e-05
1.0001435e-05
1.0001441e-05
1.0001299e-05
1.0001091e-05
1.0000897e-05
1.0000663e-05
1.0000396e-05
1.000021e-05
1.0000234e-05
0.0010796436
0.0012113757
0.00045403767
3.4608362e-05
1.0743693e-05
1.0388725e-05
1.0208972e-05
1.0141197e-05
1.0074981e-05
1.0057363e-05
1.0029654e-05
1.0025058e-05
1.0014501e-05
1.0011549e-05
1.0007759e-05
1.0005802e-05
1.0004232e-05
1.0003175e-05
1.0002358e-05
1.0001792e-05
1.0001442e-05