/*--------------------------------*- C++ -*----------------------------------*\
  =========                 |
  \\      /  F ield         | OpenFOAM: The Open Source CFD Toolbox
   \\    /   O peration     | Website:  https://openfoam.org
    \\  /    A nd           | Version:  8
     \\/     M anipulation  |
\*---------------------------------------------------------------------------*/
FoamFile
{
    version     2.0;
    format      ascii;
    class       volScalarField;
    location    "0.10999";
    object      p;
}
// * * * * * * * * * * * * * * * * * * * * * * * * * * * * * * * * * * * * * //

dimensions      [1 -1 -2 0 0 0 0];

internalField   nonuniform List<scalar> 
20000
(
59741.272
59756.687
59774.78
59799.653
59833.847
59878.812
59942.913
60014.112
60104.911
60215.127
60344.806
60515.086
60704.063
60959.775
61234.974
61608.519
62017.093
62560.056
63167.838
63954.495
64873.045
66027.509
67400.506
69086.821
71081.504
73434.186
76100.37
79017.145
82032.861
84985.549
87716.821
90131.747
92187.575
93894.31
95276.171
96377.301
97237.444
97904.877
98414.558
98806.233
99111.096
99360.243
99557.442
99730.332
99926.195
100161.09
100316.65
100375.48
100334.54
100364.55
59648.991
59665.513
59684.191
59710.093
59745.943
59793.702
59860.571
59936.552
60032.473
60148.672
60283.69
60460.705
60653.171
60914.834
61193.344
61574.279
61988.564
62536.984
63150.994
63945.886
64873.739
66049.893
67447.837
69157.803
71174.936
73544.398
76221.789
79140.045
82150.16
85091.766
87810.817
90212.428
92255.333
93948.966
95318.828
96408.961
97260.37
97921.228
98426.339
98815.089
99119.099
99367.775
99563.22
99736.079
99950.471
100187.99
100323.79
100370.81
100337.89
100359.5
59604.79
59622.122
59641.926
59669.43
59707.716
59758.307
59828.759
59908.42
60008.597
60128.823
60266.252
60446.067
60638.638
60903.089
61182.936
61568.306
61986.57
62549.258
63183.05
64004.534
64960.283
66162.274
67586.758
69323.376
71365.938
73755.876
76445.552
79362.758
82358.93
85276.594
87968.011
90341.582
92358.855
94029.629
95379.959
96453.595
97292.269
97943.731
98442.27
98826.784
99129.1
99376.676
99569.488
99743.055
99980.643
100209.99
100329.73
100368.97
100339.39
100353.46
59591.846
59609.85
59630.206
59658.425
59697.902
59749.568
59821.854
59903.249
60005.785
60129.355
60270.21
60456.084
60651.887
60925.137
61214.234
61615.643
62049.265
62632.554
63286.844
64133.708
65116.372
66347.999
67803.755
69572.587
71646.494
74062.288
76766.993
79681.782
82657.391
85540.153
88190.37
90522.211
92501.419
94139.436
95462.607
96514.022
97335.518
97974.348
98463.965
98842.647
99142.206
99387.759
99577.057
99753.005
100012.98
100227.21
100334.67
100368.42
100339.95
100347.73
59604.124
59623.183
59644.891
59674.793
59716.859
59771.263
59847.234
59932.108
60038.844
60167.583
60313.583
60507.403
60712.787
60999.406
61300.04
61718.013
62167.142
62771.25
63446.769
64319.94
65331.197
66594.946
68085.414
69890.787
72000.909
74447.082
77169.167
80080.546
83030.361
85869.449
88467.358
90746.111
92677.001
94273.91
95563.312
96587.49
97388.069
98011.555
98490.288
98861.804
99157.648
99400.329
99585.982
99767.281
100044.23
100242.77
100339.47
100368.25
100340.14
100341.23
59664.466
59684.179
59706.889
59737.856
59781.735
59837.841
59916.566
60003.714
60113.83
60247.417
60398.601
60601.224
60815.992
61116.266
61428.395
61863.075
62327.887
62953.069
63650.318
64550.523
65592.05
66891.167
68420.951
70268.138
72420.053
74901.258
77643.052
80550.038
83469.532
86257.536
88793.851
91009.827
92883.444
94431.788
95681.438
96673.731
97449.837
98055.369
98521.319
98884.368
99175.516
99414.401
99596.838
99787.938
100072.8
100256.45
100344.15
100369.33
100339.8
100334.11
59753.112
59773.006
59797.07
59829.773
59876.373
59935.195
60017.933
60108.971
60223.921
60364.075
60520.935
60733.068
60954.537
61266.738
61589.536
62040.551
62521.052
63167.775
63888.078
64817.353
65892.07
67229.972
68803.285
70697.036
72895.65
75415.73
78178.757
81079.933
83964.919
86695.519
89162.574
91307.817
93116.781
94610.302
95815.059
96771.395
97519.896
98105.158
98556.638
98910.054
99195.551
99429.701
99609.866
99815.965
100097.97
100268.82
100348.74
100371.53
100337.82
100326.72
59868.336
59888.956
59913.803
59947.969
59997.172
60058.24
60144.692
60239.19
60358.562
60504.79
60667.129
60888.212
61117.325
61442.114
61775.905
62243.815
62740.754
63410.194
64155.336
65115.9
66226.78
67606.993
69228.148
71173.124
73422.954
75984.96
78769.791
81662.954
84509.055
87176.445
89567.67
91635.528
93373.692
94807.136
95962.612
96879.435
97597.554
98160.475
98595.974
98938.704
99217.604
99446.043
99625.027
99849.315
100121.36
100280.42
100352.98
100373.29
100334.85
100319.4
59999.553
60023.546
60049.328
60085.263
60137.627
60200.673
60291.599
60389.854
60513.74
60666.358
60834.305
61064.64
61301.248
61638.762
61983.827
62469.229
62983.626
63677.19
64449.192
65443.467
66593.593
68019.553
69692.565
71693.02
73997.866
76603.84
79409.883
82291.987
85094.516
87693.282
90003.058
91988.092
93650.522
95019.654
96122.242
96996.553
97681.922
98220.725
98638.943
98970.073
99241.462
99463.194
99641.936
99885.394
100144.63
100292.05
100356.97
100374.44
100331.39
100312.4
60151.788
60177.34
60203.76
60241.314
60296.869
60361.854
60456.982
60558.677
60686.494
60845.274
61018.691
61258.346
61502.846
61853.777
62210.814
62714.714
63247.877
63967.251
64768.332
65798.762
66991.184
68466.284
70195.11
72255.035
74618.083
77269.019
80094.463
82961.449
85715.226
88240.068
90463.418
92361.125
93943.887
95245.368
96292.168
97121.493
97772.129
98285.32
98685.172
99003.918
99266.927
99480.959
99660.087
99922.319
100168.32
100304.14
100360.9
100374.96
100327.68
100305.9
60316.917
60344.419
60371.306
60410.475
60469.151
60536.367
60635.467
60741.343
60873.631
61039.199
61218.515
61468.142
61720.936
62085.934
62455.713
62979.221
63532.664
64279.573
65111.909
66180.888
67418.638
68946.212
70734.669
72857.708
75281.409
77977.176
80818.993
83665.841
86365.268
88811.021
90943.569
92750.318
94250.421
95481.761
96470.558
97252.937
97867.249
98353.631
98734.251
99039.968
99293.775
99499.204
99679.115
99958.618
100192.06
100317.06
100365.38
100375.07
100323.75
100299.98
60492.892
60523.238
60551.318
60592.249
60654.483
60724.581
60827.833
60938.173
61075.064
61247.634
61432.914
61692.919
61954.452
62334.335
62717.816
63262.232
63837.548
64613.762
65479.593
66589.568
67875.748
69459.193
71311.067
73500.572
75986.621
78725.929
81579.849
84400.578
87039.579
89401.11
91438.929
93151.79
94567.029
95726.48
96655.664
97389.604
97966.366
98425.03
98785.771
99077.943
99321.766
99517.929
99699.091
99993.21
100214.95
100330.77
100371.42
100373.78
100319.48
100294.69
60684.027
60715.734
60745.375
60787.893
60853.439
60926.27
61033.31
61148.078
61289.512
61469.402
61660.986
61932.015
62202.912
62598.642
62996.896
63563.578
64162.393
64969.629
65871.151
67024.595
68362.375
70005.132
71924.122
74183.071
76732.282
79512.633
82373.186
85160.994
87733.144
90005.462
91945.108
93561.825
94890.737
95977.24
96845.765
97530.218
98068.561
98498.882
98839.315
99117.556
99350.661
99537.304
99720.757
100025.52
100236.04
100344.03
100380.5
100369.83
100315.02
100289.99
60886.048
60918.481
60949.802
60993.979
61063.029
61138.89
61250.073
61369.793
61516.183
61704.03
61902.413
62185.205
62466.157
62878.761
63292.935
63883.202
64507.115
65347.078
66286.634
67486.196
68878.914
70584.535
72574.304
74905.265
77517.516
80335.148
83195.681
85942.978
88441.572
90619.812
92458.237
93977.107
95218.857
96231.955
97039.264
97673.568
98172.95
98574.572
98894.472
99158.519
99380.279
99557.651
99745.422
100055.25
100255.18
100356.49
100390.22
100364.81
100310.59
100285.8
61096.856
61130.654
61163.897
61210.369
61283.482
61362.972
61478.713
61603.839
61755.377
61951.616
62157.185
62452.491
62744.206
63174.77
63605.981
64221.117
64871.689
65746.124
66726.179
67974.659
69425.782
71197.877
73261.955
75666.929
78341.037
81190.888
84043.66
86742.231
89160.474
91240.015
92974.62
94394.511
95548.865
96488.649
97234.627
97818.48
98278.67
98651.497
98950.833
99200.524
99410.521
99579.359
99774.287
100082.34
100272.4
100367.26
100399.08
100358.91
100306.33
100282.03
61320.27
61355.43
61390.445
61439.105
61515.99
61599.09
61718.996
61849.904
62006.817
62211.95
62425.219
62733.91
63037.185
63486.742
63936.063
64577.251
65256.14
66166.97
67190.248
68490.69
70003.848
71846.133
73987.889
76468.236
79201.816
82077.519
84913.76
87554.896
89885.946
91862.413
93491.013
94811.294
95878.543
96745.555
97430.455
97963.866
98384.919
98729.094
99008.003
99243.223
99441.197
99602.755
99807.077
100107.57
100288
100375.74
100404.41
100353.19
100302.35
100278.59
61552.52
61589.425
61626.567
61677.887
61758.827
61845.981
61970.311
62107.601
62270.422
62485.179
62706.691
63029.65
63345.159
63814.651
64283.08
64951.612
65660.636
66609.975
67679.419
69035.02
70613.963
72530.161
74752.714
77308.932
80098.303
82992.139
85802.22
88376.927
90614.059
92483.446
94004.341
95224.914
96205.849
97001.021
97625.429
98108.7
98490.929
98806.827
99065.602
99286.296
99472.055
99627.969
99842.752
100131.83
100302.01
100382.32
100406.9
100347.9
100298.66
100275.37
61797.41
61836.002
61875.126
61928.904
62013.64
62104.596
62233.495
62377.585
62546.638
62771.583
63001.722
63339.702
63668.018
64158.315
64646.977
65344.273
66085.543
67075.77
68194.571
69608.728
71257.337
73251.229
75557.342
78188.98
81029.034
83931.987
86705.504
89204.597
91341.274
93099.975
94511.937
95633.179
96529.022
97253.596
97818.375
98252.062
98596.004
98884.208
99123.272
99329.43
99502.902
99654.976
99880.969
100155.38
100314.26
100387.54
100407.96
100343.04
100295.22
100272.34
62052.244
62092.725
62133.98
62190.492
62279.419
62374.953
62508.538
62659.668
62835.262
63071.064
63310.108
63663.817
64005.478
64517.593
65027.828
65755.618
66531.463
67565.137
68736.65
70212.88
71935.13
74010.473
76402.367
79107.776
81991.9
84893.749
87619.717
90033.99
92064.044
93708.962
95011.295
96034.063
96846.428
97501.951
98008.224
98393.116
98699.499
98960.788
99180.67
99372.317
99533.537
99683.651
99921.643
100178.57
100324.52
100390.23
100408.41
100338.63
100291.96
100269.42
62316.75
62359.391
62403.099
62462.797
62556.452
62657.067
62795.156
62954.218
63136.355
63383.405
63631.489
64001.629
64357.398
64892.6
65426.057
66186.213
66999.175
68079.057
69306.839
70848.826
72648.85
74809.359
77288.57
80064.727
82984.758
85874.181
88541.161
90861.505
92779.181
94307.745
95500.264
96425.807
97156.613
97744.984
98194.103
98531.141
98800.85
99036.169
99237.478
99414.679
99563.839
99713.857
99964.388
100201.81
100333.55
100391.47
100408.53
100334.6
100288.75
100266.61
62592.14
62636.886
62682.952
62745.817
62844.174
62949.641
63092.582
63259.728
63448.779
63707.946
63965.477
64353.055
64724.003
65283.817
65842.325
66636.841
67489.592
68618.592
69906.352
71517.918
73399.973
75649.148
78216.269
81058.578
84004.804
86869.505
89465.807
91683.416
93483.505
94893.772
95976.834
96806.761
97458.174
97981.78
98375.291
98665.482
98899.563
99109.99
99293.391
99456.265
99593.861
99745.673
100008.2
100225.33
100342.47
100391.93
100406.18
100330.47
100285.43
100263.88
62876.375
62923.531
62972.302
63038.755
63142.006
63252.503
63400.774
63576.789
63772.307
64044.626
64312.186
64718.567
65105.932
65691.99
66277.397
67108.316
68003.728
69184.972
70536.613
72221.802
74190.282
76531.304
79185.794
82087.978
85049.157
87875.977
90389.806
92496.273
94174.204
95464.863
96439.3
97175.515
97749.947
98211.703
98551.236
98795.543
98995.244
99181.94
99348.128
99496.862
99623.844
99779.699
100051.31
100248.59
100351.66
100392.03
100401.56
100325.57
100281.89
100261.21
63172.822
63222.268
63273.322
63343.09
63451.278
63566.91
63720.414
63905.773
64107.543
64393.654
64672.264
65098.896
65504.001
66117.835
66732.05
67601.552
68542.727
69779.522
71199.107
72962.169
75021.483
77456.954
80196.828
83150.807
86114.223
88889.325
91308.992
93296.514
94848.547
96019.002
96886.082
97530.854
98031.157
98434.286
98721.355
98920.715
99087.557
99251.74
99401.425
99536.291
99654.177
99817.031
100091.37
100270.33
100360.94
100392.82
100394.65
100319.9
100278.17
100258.57
63473.984
63526.423
63580.539
63654.558
63768.888
63890.895
64050.47
64245.813
64455.013
64756.676
65046.59
65494.882
65918.782
66561.979
67207.058
68117.565
69107.882
70403.737
71895.563
73741.003
75895.547
78427.258
81248.889
84244.672
87196.254
89905.3
92219.369
94080.874
95504.216
96554.58
97315.92
97871.996
98301.857
98649.155
98884.894
99040.413
99176.19
99319.169
99453.042
99574.41
99685.214
99858.405
100126.61
100289.38
100369.28
100396.71
100385.23
100313.72
100274.38
100255.93
63787.448
63842.852
63900.133
63978.239
64098.559
64226.692
64392.338
64598.086
64815.001
65134.156
65436.013
65906.873
66350.778
67025.02
67703.41
68657.591
69700.643
71059.222
72627.807
74560.376
76814.285
79442.916
82340.658
85366.329
88290.76
90919.188
93116.702
94846.114
96139.08
97070.199
97727.799
98198.613
98562.961
98855.684
99040.785
99154.176
99260.771
99384.056
99502.767
99611.106
99717.049
99902.328
100157.3
100306
100376.51
100399.75
100374.96
100307.5
100270.61
100253.25
64111.534
64169.942
64230.434
64312.555
64438.953
64573.69
64745.829
64962.808
65188.215
65525.668
65840.421
66335.294
66800.552
67507.871
68222.27
69223
70322.566
71747.772
73397.964
75422.643
77779.658
80504.447
83470.54
86512.228
89393.149
91926.332
93997.027
95589.539
96751.515
97564.786
98121.165
98510.926
98815.561
99052.789
99188.046
99261.947
99340.876
99446.299
99550.425
99646.294
99749.475
99946.392
100184.6
100320.15
100382.35
100401.24
100364.7
100301.45
100266.89
100250.49
64444.238
64506.207
64570.77
64657.574
64790.675
64932.796
65112.023
65341.027
65575.468
65931.742
66259.907
66780.71
67269.041
68011.708
68765.036
69815.273
70975.311
72471.326
74208.317
76330.17
78793.271
81611.612
84635.971
87677.955
90498.208
92921.736
94856.538
96309
97340.152
98037.226
98495.797
98809.455
99058.639
99238.897
99326.795
99364.214
99416.208
99505.826
99595.878
99679.923
99782.221
99989.414
100208.82
100331.41
100386.52
100401.94
100354.91
100295.77
100263.25
100247.62
64790.424
64855.847
64924.363
65015.608
65155.226
65304.782
65491.124
65733.038
65977.055
66353.362
66695.312
67243.796
67757.533
68537.9
69333.174
70435.929
71660.703
73232.146
75061.488
77285.535
79856.618
82763.787
85833.922
88858.787
91600.667
93900.774
95692.468
97003.453
97903.935
98486.313
98851.702
99094.724
99289.32
99412.966
99457.47
99461.728
99487.039
99562.543
99639.041
99712.039
99815.18
100030.93
100230.31
100339.94
100388.46
100402.23
100346.13
100290.44
100259.64
100244.62
65145.296
65214.541
65287.598
65383.866
65530.735
65688.723
65882.878
66139.003
66393.735
66791.527
67147.637
67726.01
68267.279
69087.853
69928.102
71086.594
72380.798
74032.761
75960.25
78291.139
80970.549
83959.351
87060.304
90049.163
92694.835
94859.205
96503.217
97672.384
98441.543
98910.774
99188.648
99366.472
99504.288
99575.537
99580.267
99554.328
99554.563
99616.257
99679.901
99742.891
99848.729
100070.71
100249.51
100346.58
100389.27
100402.3
100338.15
100285.38
100256
100241.46
65510.905
65584.328
65662.515
65764.255
65918.895
66086.262
66288.638
66560.001
66825.937
67246.138
67619.162
68228.977
68799.582
69662.722
70551.289
71769.128
73138.034
74876.092
76907.64
79349.36
82135.528
85196.073
88310.497
91243.265
93775.376
95794.085
97288.566
98314.618
98950.999
99310.335
99506.069
99622.533
99702.565
99731.383
99694.749
99639.24
99620.396
99666.699
99718.537
99773.004
99883.911
100108.43
100266.96
100352.14
100389.48
100400.93
100330.8
100280.48
100252.27
100238.13
65888.639
65966.557
66050.36
66157.955
66320.644
66498.297
66709.181
66996.87
67274.461
67718.487
68110.078
68753.587
69355.688
70263.652
71204.438
72485.82
73935.25
75765.303
77906.673
80462.106
83351.07
86470.522
89578.816
92434.697
94837.341
96703.791
98047.959
98926.029
99430.933
99685.542
99803.499
99861.238
99888.196
99879.491
99800.46
99717.27
99684.159
99713.718
99755.095
99803.356
99922.285
100143.31
100282.92
100356.35
100388.24
100397.49
100323.95
100275.62
100248.41
100234.62
66279.995
66362.598
66452.29
66566.085
66736.85
66925.397
67144.867
67450.068
67740.003
68209.312
68621.155
69300.709
69936.904
70892.061
71889.657
73239.477
74775.676
76703.84
78960.398
81630.982
84616.03
87778.569
90859.121
93617.374
95877.109
97588.069
98777.26
99503.584
99879.663
100036.69
100081.91
100083.23
100064.42
100017.95
99897.254
99789.341
99745.104
99757.653
99789.732
99834.886
99964.752
100174.03
100297.51
100359.29
100384.47
100391.99
100317.44
100270.71
100244.36
100230.91
66684.189
66771.678
66867.479
66987.813
67166.762
67367.288
67595.93
67920.209
68223.536
68719.82
69153.733
69871.043
70544.322
71549.941
72609.711
74033.359
75662.805
77695.185
80071.601
82856.721
85928.04
89114.785
92144.527
94785.448
96892.36
98445.719
99470.547
100043.9
100296.33
100365.21
100343.5
100290.8
100230.18
100146.51
99985.7
99856.045
99801.729
99799.483
99822.547
99867.528
100008.43
100201.34
100310.49
100362.25
100380.79
100384.73
100310.95
100265.63
100240.13
100227.01
67099.875
67192.878
67295.609
67423.49
67611.17
67825.18
68063.862
68408.48
68726.07
69251.189
69709.246
70465.495
71179.778
72240.033
73367.928
74871.055
76600.3
78742.896
81242.816
84139.422
87283.772
90473.072
93428.197
95934.308
97882.298
99270.671
100123.22
100544.61
100684.47
100674.36
100587.26
100484.67
100385.69
100265.35
100066.63
99917.875
99852.538
99840.057
99853.621
99900.356
100051.18
100225.54
100321.31
100364.73
100378.96
100375.63
100304.07
100260.43
100235.74
100222.9
67529.308
67628.437
67738.974
67875.444
68072.101
68300.706
68549.706
68915.779
69248.123
69804.091
70288.586
71086.339
71846.398
72965.669
74167.958
75756.334
77591.887
79850.398
82475.948
85477.965
88678.421
91846.198
94703.276
97060.472
98845.52
100054.71
100730.59
101007.24
101050.67
100961.85
100813.72
100665.5
100531.13
100374.76
100140.53
99974.643
99898.27
99878.73
99883.188
99932.822
100091.73
100246.79
100330.28
100366.88
100378.13
100365.82
100297.19
100255.2
100231.23
100218.61
67975.248
68080.673
68199.174
68344.571
68549.839
68793.817
69053.045
69442.681
69790.698
70379.92
70893.986
71736.514
72547.644
73730.464
75013.566
76693.042
78641.402
81021.04
83772.357
86870.237
90106.272
93226.687
95963.895
98162.018
99774.867
100791.88
101290.47
101440.64
101392.79
101228.2
101023.56
100833.97
100666.8
100475.05
100207.71
100026.32
99939.813
99914.54
99911.836
99964.988
100129.3
100265.4
100337.68
100368.86
100377.73
100356.34
100290.49
100249.97
100226.59
100214.14
68435.99
68548.122
68674.824
68829.671
69043.434
69304.01
69574.126
69990.375
70356.038
70981.32
71528.673
72419.569
73286.926
74538.14
75908.591
77685.11
79752.687
82257.819
85132.358
88312.516
91560.21
94606.727
97205.056
99237.034
100660.53
101476.96
101807.52
101848.27
101709.62
101473.99
101217.6
100990.69
100792.94
100566.36
100268.53
100073.26
99977.916
99947.011
99939.979
99997.236
100163.22
100281.55
100343.56
100369.88
100377.21
100347.41
100283.97
100244.73
100221.86
100209.52
68910.391
69030.13
69165.726
69331.172
69554.027
69833.185
70115.748
70561.324
70947.367
71611.797
72196.159
73138.953
74067.845
75392.453
76856.922
78736.599
80929.64
83563.364
86555.301
89799.866
93032.429
95979.131
98423.219
100279.01
101494.29
102107.21
102291.78
102227.64
102001.65
101700.18
101396.71
101136.3
100909.79
100648.68
100323.47
100115.65
100012.67
99977.065
99967.764
100030.62
100192.53
100295.26
100348.3
100370.33
100376.51
100338.42
100277.75
100239.51
100217.03
100204.78
69400.485
69528.939
69674.183
69851.636
70084.797
70385.07
70681.704
71159.281
71568.302
72274.673
72899.62
73897.898
74894.179
76297.313
77862.552
79851.765
82176.032
84939.477
88038.877
91325.711
94514.258
97337.259
99615.539
101276.94
102269.88
102687.81
102746.35
102577.65
102269.77
101907.71
101561.76
101271.41
101017.57
100722.08
100372.97
100153.64
100044.34
100005.55
99995.462
100065.8
100216.5
100306.41
100352.2
100370.44
100375.39
100330.13
100271.82
100234.32
100212.13
100199.94
69911.336
70049.34
70204.45
70395.153
70640.012
70963.981
71275.511
71787.631
72221.698
72972.465
73641.906
74699.909
75769.917
77256.707
78929.662
81035.117
83495.601
86387.019
89579.361
92882.313
95997.339
98675.679
100777.26
102219.45
102983.32
103229.6
103168.61
102899.02
102515.1
102097.63
101713.68
101396.63
101116.54
100787.09
100416.92
100187.48
100073.42
100033.03
100023.18
100100.88
100236.71
100315.06
100354.08
100369.77
100373.64
100322.37
100266.18
100229.24
100207.21
100195
70445.452
70594.264
70760.033
70966.037
71223.548
71573.149
71899.601
72448.223
72909.438
73707.373
74426.175
75549.046
76699.106
78274.787
80062.72
82291.397
84891.646
87905.407
91171.052
94460.586
97473.53
99989.92
101896.72
103098.83
103638.22
103737.61
103556.99
103192.86
102738.8
102271.02
101853.36
101512.54
101206.93
100844
100455.38
100217.57
100100.45
100059.79
100050.8
100134.17
100254.3
100321.96
100354.83
100368.05
100371.17
100315.01
100260.79
100224.38
100202.42
100189.96
71004.417
71165.729
71343.87
71567.538
71836.778
72212.928
72555.177
73142.623
73633.891
74482.552
75256.325
76449.121
77685.986
79356.071
81266.642
83625.532
86366.759
89492.539
92806.756
96051.118
98935.628
101276.04
102959.9
103909.34
104245.73
104209.51
103912.36
103460.49
102942.14
102428.98
101981.72
101619.74
101288.95
100892.88
100488.58
100244.4
100125.84
100085.88
100078.02
100164.55
100269.76
100327.7
100355.02
100365.48
100367.9
100307.97
100255.39
100219.73
100198.13
100184.81
71585.143
71760.872
71952.793
72196.186
72477.172
72883.138
73243.175
73873.45
74398.945
75302.47
76137.195
77403.307
78734.631
80505.806
82546.965
85042.249
87922.142
91144.079
94477.446
97644.249
100376.87
102523.77
103956.06
104650.85
104814.99
104642.46
104236.03
103703.34
103126.38
102572.6
102099.63
101718.73
101362.79
100933.96
100516.98
100268.52
100149.89
100111.18
100104.5
100192.19
100283.19
100332.54
100355.03
100362.6
100363.53
100301.18
100250.02
100215.37
100194.33
100179.59
72193.53
72384.187
72589.188
72853.747
73147.657
73588.277
73968.409
74645.184
75209.075
76171.42
77072.964
78415.511
79849.901
81730.125
83909.784
86545.779
89557.356
92853.666
96173.056
99230.976
101791.65
103717.87
104877.81
105333.84
105344.25
105037.42
104529.61
103922.91
103292.82
102703
102207.92
101809.95
101428.71
100968.08
100541.18
100290.41
100172.77
100135.54
100129.93
100217.01
100294.63
100336.41
100355.11
100360.97
100357.15
100294.58
100244.79
100211.32
100190.88
100174.41
72829.106
73036.421
73255.096
73545.052
73853.776
74333.145
74735.433
75461.684
76067.969
77092.638
78066.51
79491.887
81037.847
83036.023
85361.313
88139.182
91269.64
94612.606
97882.587
100802.51
103172.5
104842.11
105720.42
105972.44
105829.25
105395.86
104794.8
104120.71
103442.76
102821.22
102307.33
101893.7
101487.03
100996.91
100561.94
100310.5
100194.57
100158.88
100154.17
100238.99
100304.49
100339.59
100355.14
100359.93
100349.69
100288.11
100239.72
100207.57
100187.57
100169.47
73507.715
73730.554
73959.441
74276.435
74600.057
75121.077
75547.298
76326.117
76979.35
78070.339
79123.083
80638.218
82305.836
84431.06
86907.333
89823.795
93053.835
96410.524
99595.226
102350.83
104503.57
105886.95
106492.92
106566.26
106270.57
105719.72
105033.42
104298.31
103577.47
102928.3
102398.54
101970.3
101538.06
101021.76
100579.86
100329.13
100215.43
100181.22
100177.28
100258.02
100312.99
100342.31
100355.12
100359.02
100341.9
100281.71
100234.83
100204.06
100184.29
100164.85
74216.815
74459.477
74702.511
75048.506
75387.17
75953.246
76406.303
77241.594
77947.452
79109.541
80249.41
81862.756
83662.212
85922.93
88552.506
91598.475
94901.973
98235.36
101300.18
103868.16
105766.09
106845.16
107209.38
107111.58
106669.84
106011.01
105247.3
104457.21
103698.22
103025.23
102482.27
102040.38
101582.29
101040.15
100595.2
100346.61
100235.53
100202.67
100199.51
100273.88
100320.04
100344.56
100355.02
100358.05
100334.1
100275.35
100230.14
100200.73
100180.99
100160.49
74960.905
75226.384
75485.907
75864.095
76218.358
76833.505
77316.568
78212.566
78977.397
80216.177
81455.463
83175.16
85115.683
87518.721
90299.674
93459.325
96803.689
100074.54
102986.79
105341.17
106945.48
107720.09
107875.84
107606.88
107029.28
106271.9
105438.31
104598.94
103806.2
103112.94
102559.25
102104.95
101620.99
101050.05
100608.14
100363.19
100254.99
100223.27
100221.01
100286.64
100325.71
100346.32
100354.77
100357.06
100325.85
100269.05
100225.63
100197.47
100177.64
100156.35
75746.355
76036.689
76313.11
76726.702
77097.584
77766.195
78283.381
79245.173
80076.921
81399.782
82750.896
84585.45
86674.843
89224.368
92149.19
95399.195
98746.291
101915.24
104644.84
106749.51
108031.81
108524.71
108489.33
108053.84
107351.23
106504.58
105608.25
104724.93
103902.58
103192.33
102630.2
102165.03
101655.67
101054.48
100619.11
100379
100273.75
100242.95
100240.95
100297.46
100330.3
100347.36
100354.15
100355.83
100317.74
100262.74
100221.27
100194.23
100174.24
100152.4
76573.388
76891.333
77185.004
77639.684
78029.036
78757.177
79314.306
80347.823
81256.249
82671.975
84145.583
86103.377
88347.646
91044.052
94098.526
97408.034
100715.79
103744.84
106263.7
108071.96
109021.6
109272.6
109045.86
108454.89
107638.3
106711.3
105758.94
104836.63
103988.48
103264.27
102695.82
102220.8
101684.16
101056.42
100628.67
100394.12
100291.73
100261.58
100259.18
100306.91
100334.13
100347.81
100352.99
100354.08
100309.89
100256.49
100217.04
100190.97
100170.82
100148.63
77445.469
77794.901
78106.854
78610.967
79021.854
79815.863
80419.278
81530.515
82526.545
84044.358
85650.13
87738.24
90140.815
92979.475
96141.575
99472.672
102697.13
105549.97
107821.5
109295.78
109926.17
109961.77
109547.01
108812.79
107893.09
106894.23
105892.11
104935.38
104064.97
103329.65
102756.7
102271.46
101700.06
101056.95
100637.32
100408.69
100308.89
100278.95
100275.71
100315.09
100337.25
100347.96
100351.59
100351.37
100302.14
100250.37
100212.92
100187.66
100167.4
100145.05
78373.596
78759.619
79092.907
79651.528
80086.134
80952.477
81609.481
82804.976
83900.121
85527.433
87274.435
89498.644
92059.469
95029.265
98268.601
101577.57
104674.95
107317.47
109293.78
110411.81
110763.57
110587.16
109995.44
109130.58
108118.29
107055.56
106009.46
105022.49
104133.1
103389.31
102813.26
102316.25
101707.01
101057.06
100645.57
100422.85
100325.2
100294.78
100290.51
100322.05
100339.71
100348.01
100350.81
100346.85
100294.42
100244.37
100208.9
100184.32
100164
100141.65
79366.442
79795.114
80149.87
80771.247
81232.059
82177.896
82897.838
84184.772
85390.879
87129.772
89027.232
91392.593
94106.715
97188.342
100466.02
103705.25
106632.74
109027.55
110661.4
111428.32
111534.89
111149.18
110394.32
109411.36
108316.53
107197.36
106112.57
105099.2
104193.86
103443.97
102865.77
102355.15
101709.52
101057.73
100653.77
100436.6
100340.44
100309
100303.56
100327.98
100341.77
100348.01
100350.13
100340.91
100286.76
100238.51
100204.94
100180.95
100160.65
100138.47
80432.322
80910.975
81286.807
81981.173
82471.92
83504.74
84298.118
85682.09
87007.787
88863.751
90918.071
93426.832
96282.594
99447.266
102716.95
105837.42
108553.93
110653.22
111912.31
112362.44
112235.7
111650.72
110747.2
109658.35
108490.42
107321.66
106202.99
105166.71
104248.19
103494.32
102914.4
102388.56
101709.12
101058.77
100662.06
100449.79
100354.45
100321.63
100314.96
100332.8
100342.98
100347.67
100349.21
100333.97
100279.19
100232.82
100201.01
100177.58
100157.37
100135.49
81581.961
82120.459
82516.543
83294.96
83819.873
84946.344
85823.889
87308.603
88761.755
90740.59
92956.179
95606.116
98583.018
101791.8
105001.43
107954.48
110419.66
112168.31
113048.4
113221.91
112864.23
112095.4
111057.73
109874.72
108642.47
107430.36
106282.18
105226.14
104296.98
103540.9
102959.29
102416.91
101705.66
101060.07
100670.33
100462.23
100367.2
100332.83
100324.91
100336.57
100343.49
100346.85
100347.88
100326.34
100271.72
100227.34
100197.13
100174.23
100154.17
100132.75
82823.136
83435.055
83850.542
84726.012
85290.214
86514.391
87486.042
89074.002
90666.054
92772.656
95150.062
97931.911
100998.78
104203.21
107297.79
110035.7
112199.8
113557.3
114085.97
114002.77
113423.59
112487.36
111329.76
110063.6
108775.12
107525.31
106351.5
105278.57
104341.07
103584.2
103000.61
102440.7
101700.43
101061.59
100678.44
100473.76
100378.72
100342.86
100333.78
100339.29
100343.61
100345.63
100346.05
100317.92
100264.38
100222.03
100193.29
100170.9
100151.07
100130.27
84168.389
84870.494
85300.71
86286.711
86896.148
88218.148
89293.575
90989.675
92734.344
94972.716
97506.16
100400.69
103514.54
106658.35
109582.44
112059.26
113862.86
114816.24
115038.5
114701.41
113917.83
112830.94
111567.02
110227.99
108890.65
107608.21
106412.27
105325.02
104381.2
103624.66
103038.62
102460.6
101694.39
101063.29
100686.26
100484.45
100389.18
100351.74
100341.34
100341.28
100343.57
100344.59
100343.18
100309.14
100257.19
100216.87
100189.5
100167.63
100148.1
100128.03
85642.844
86450.726
86883.642
87986.026
88647.18
90065.933
91258.527
93071.983
94979.708
97352.411
100027.19
103002.07
106108.53
109130.72
111829.6
113992.34
115388.48
115960.72
115902.21
115321.2
114351.82
113130.69
111773.28
110370.82
108991.26
107680.72
106465.72
105366.45
104418.07
103662.65
103073.63
102477.34
101688.15
101065.08
100693.84
100494.56
100398.95
100359.47
100346.4
100343.43
100343.45
100343.85
100338.94
100300.38
100250.17
100211.86
100185.75
100164.45
100145.28
100126.03
87243.776
88176.352
88601.812
89824.532
90553.22
92073.973
93403.469
95338.905
97417.245
99921.149
102709.49
105717.45
108752.88
111591.17
114012.06
115798.94
116768.73
117007.83
116672.37
115866.78
114730.72
113391.12
111952.15
110494.84
109079
107744.34
106513.02
105403.76
104452.33
103698.52
103105.94
102491.57
101682.09
101066.9
100701.32
100504.22
100407.93
100366.1
100350.19
100344.95
100343.35
100342.91
100333.53
100291.73
100243.3
100206.95
100182.03
100161.36
100142.65
100124.26
88995.365
90055.341
90470.694
91816.008
92638.962
94271.857
95756.409
97816.915
100062.63
102681.22
105539.01
108519
111414.57
114007.65
116093.62
117453.58
118019.3