/*--------------------------------*- C++ -*----------------------------------*\
  =========                 |
  \\      /  F ield         | OpenFOAM: The Open Source CFD Toolbox
   \\    /   O peration     | Website:  https://openfoam.org
    \\  /    A nd           | Version:  8
     \\/     M anipulation  |
\*---------------------------------------------------------------------------*/
FoamFile
{
    version     2.0;
    format      ascii;
    class       surfaceScalarField;
    location    "0.10999";
    object      phi;
}
// * * * * * * * * * * * * * * * * * * * * * * * * * * * * * * * * * * * * * //

dimensions      [1 0 -1 0 0 0 0];

internalField   nonuniform List<scalar> 
39600
(
0.00013325073
-0.0077698726
0.0076394617
0.0001076137
-0.010985335
0.011011691
7.927023e-05
-0.014460201
0.01449041
4.3753254e-05
-0.018722481
0.018760107
1.9156067e-06
-0.024124379
0.024169873
-3.446303e-05
-0.031158874
0.031199556
-0.00026785207
-0.038834078
0.039072851
-0.00060887982
-0.047013306
0.047360051
-0.0010198282
-0.05592932
0.056347592
-0.0015070074
-0.067346947
0.067842737
-0.0020862521
-0.080373961
0.080963502
-0.0027774442
-0.096603051
0.097306675
-0.0035962724
-0.11550227
0.11633583
-0.0045775055
-0.13868229
0.13968155
-0.0057502672
-0.16598191
0.1671766
-0.0071469633
-0.19919104
0.20061425
-0.008804282
-0.23858458
0.2402749
-0.010770688
-0.28629575
0.28830467
-0.013126103
-0.34316929
0.3455743
-0.015947868
-0.41184089
0.41472341
-0.019303386
-0.49399394
0.49742695
-0.023310178
-0.59299064
0.59709797
-0.028073929
-0.71168615
0.71657433
-0.033753539
-0.85450133
0.86033326
-0.040522532
-1.0257002
1.0326557
-0.048609291
-1.2308942
1.2392074
-0.058290181
-1.4758324
1.4857811
-0.069916459
-1.7673676
1.7793009
-0.083905922
-2.1131553
2.1274869
-0.10073112
-2.5228164
2.5400131
-0.12091164
-3.0084667
3.0290417
-0.14498141
-3.5855208
3.6100068
-0.17348679
-4.2730654
4.3020157
-0.20698784
-5.0942328
5.1282111
-0.24609012
-6.0765594
6.1161746
-0.29138919
-7.2534184
7.2992653
-0.34351829
-8.6634445
8.7161527
-0.40302692
-10.354707
10.414826
-0.47026997
-12.383135
12.451024
-0.54516784
-14.817745
14.893354
-0.62695111
-17.738781
17.821416
-0.71361727
-21.244958
21.332704
-0.80128216
-25.453237
25.542334
-0.88307414
-30.509493
30.593359
-0.94830469
-36.579638
36.647727
-0.98651167
-43.855285
43.896686
-0.96076217
-52.600827
52.577785
-0.82805744
-63.119616
62.989254
-0.5483877
-75.825596
75.546321
-91.078611
90.541515
-1.4738409e-05
-0.0077523128
-3.9370698e-05
-0.010959726
-7.4495243e-05
-0.01442328
-0.00011717487
-0.01867762
-0.00016630498
-0.02407214
-0.00021281327
-0.031108462
-0.00044450659
-0.03859769
-0.00075540114
-0.046696932
-0.0011301306
-0.055547824
-0.0015694336
-0.066900177
-0.0020973023
-0.079837005
-0.0027261528
-0.095962939
-0.0034827001
-0.1147319
-0.0043915579
-0.13775663
-0.005475349
-0.1648783
-0.0067698432
-0.19787247
-0.0082953392
-0.23703001
-0.010122411
-0.28442803
-0.01229346
-0.34094771
-0.014893975
-0.40917803
-0.017994156
-0.49081911
-0.021696171
-0.58920207
-0.026104917
-0.7071712
-0.031386954
-0.84908802
-0.037716329
-1.0192087
-0.045345111
-1.2230675
-0.054572604
-1.4663675
-0.065785294
-1.7558776
-0.079415138
-2.0992108
-0.09593116
-2.5059525
-0.11581967
-2.9882024
-0.1395765
-3.5613607
-0.16771259
-4.2444955
-0.20076562
-5.060712
-0.23932635
-6.0374948
-0.28397546
-7.2082307
-0.33532757
-8.6115224
-0.39393167
-10.295501
-0.46015284
-12.316276
-0.53394123
-14.743249
-0.6145773
-17.657293
-0.70018202
-21.158277
-0.78700614
-25.36498
-0.86846006
-30.425963
-0.93586315
-36.509238
-0.97429744
-43.813863
-0.95266344
-52.619686
-0.83036319
-63.239427
-0.56440901
-76.091182
-91.591166
-2.1460715e-05
-0.0077286139
-4.9310995e-05
-0.010930904
-8.2522153e-05
-0.014388593
-0.00012033256
-0.018637927
-0.000160691
-0.024029029
-0.00019725027
-0.031068035
-0.0004197756
-0.038371384
-0.00071145555
-0.046400327
-0.0010596566
-0.055194305
-0.0014725372
-0.066479405
-0.0019688279
-0.079331317
-0.002565023
-0.095355035
-0.0032822775
-0.11400055
-0.0041460849
-0.13687567
-0.0051670469
-0.16383678
-0.0063916509
-0.19662295
-0.0078396807
-0.23555181
-0.0095718631
-0.2826614
-0.011621893
-0.33885659
-0.014077426
-0.40667272
-0.016998369
-0.48783781
-0.020495857
-0.58563004
-0.024669503
-0.70290608
-0.029681579
-0.84396312
-0.035711209
-1.0130397
-0.04302361
-1.2155841
-0.051937797
-1.4572463
-0.062862734
-1.7447072
-0.07623843
-2.0855518
-0.092524991
-2.4893466
-0.11217689
-2.9681985
-0.13565679
-3.5374967
-0.16344191
-4.2162912
-0.19605056
-5.0276474
-0.23405976
-5.9989922
-0.27803464
-7.1637276
-0.32859295
-8.560404
-0.38628356
-10.237217
-0.45148501
-12.250443
-0.5241708
-14.669859
-0.60369416
-17.576917
-0.68828255
-21.072611
-0.7743421
-25.277479
-0.85551924
-30.342673
-0.92489102
-36.436822
-0.96402192
-43.771859
-0.94703037
-52.634051
-0.83465075
-63.349348
-0.58303088
-76.342645
-92.079251
-1.7574622e-05
-0.0077071533
-4.0708421e-05
-0.010905421
-6.8495167e-05
-0.014358058
-9.9491596e-05
-0.018603983
-0.00013029583
-0.023994425
-0.00016294229
-0.031030992
-0.00038068
-0.03814902
-0.00065792165
-0.046118087
-0.00099076692
-0.054855356
-0.0013881285
-0.066074956
-0.0018643757
-0.078846832
-0.0024274776
-0.094781903
-0.0031113098
-0.11330465
-0.003927833
-0.13604442
-0.0048911398
-0.16285611
-0.0060442979
-0.19544872
-0.0074061832
-0.23416497
-0.0090360834
-0.28100103
-0.010969385
-0.33688605
-0.01328887
-0.40430759
-0.016048031
-0.48502282
-0.019357241
-0.58225321
-0.02331
-0.6988701
-0.028069044
-0.83910115
-0.03381815
-1.0071633
-0.040834242
-1.2084116
-0.049455908
-1.4484347
-0.060110411
-1.7338267
-0.07324831
-2.0721505
-0.089317583
-2.4729777
-0.10874744
-2.9484348
-0.13196659
-3.5139091
-0.15942346
-4.188429
-0.19161561
-4.9950117
-0.22911414
-5.9610121
-0.27246782
-7.1198575
-0.32229429
-8.5100291
-0.37914034
-10.179788
-0.44340789
-12.185553
-0.51509671
-14.597472
-0.59362498
-17.497538
-0.67735128
-20.987811
-0.76280307
-25.190571
-0.84389262
-30.25937
-0.91438564
-36.36332
-0.95554793
-43.727961
-0.94375174
-52.643297
-0.84112193
-63.449409
-0.60425205
-76.579368
-92.542776
-1.835209e-05
-0.0076894851
-4.0296e-05
-0.010883644
-6.5473564e-05
-0.014332004
-9.175214e-05
-0.018576292
-0.00011345916
-0.023970094
-0.00014252655
-0.030998413
-0.00035144253
-0.037936463
-0.00061326977
-0.045851746
-0.00092840931
-0.054535021
-0.0013073454
-0.065689667
-0.0017576295
-0.078388813
-0.0023025531
-0.094227551
-0.0029422007
-0.11265398
-0.0037090826
-0.13526422
-0.004614381
-0.1619349
-0.0057014086
-0.19434251
-0.0069846795
-0.23285858
-0.0085269739
-0.27943094
-0.01035735
-0.33502243
-0.012552078
-0.40207264
-0.015158289
-0.48236774
-0.018280673
-0.57907078
-0.022018318
-0.69505882
-0.026537461
-0.83449141
-0.032022887
-1.0015663
-0.038762298
-1.2015352
-0.047112581
-1.4399177
-0.057518311
-1.7232211
-0.070434938
-2.0589978
-0.086301876
-2.456838
-0.10552247
-2.9289049
-0.12849819
-3.4905862
-0.15564878
-4.1608911
-0.18745661
-4.9627759
-0.22447607
-5.9235255
-0.26725678
-7.0765746
-0.3164071
-8.460344
-0.37248667
-10.123138
-0.4359088
-12.121519
-0.50671135
-14.525978
-0.5843738
-17.419028
-0.66738105
-20.903736
-0.75240765
-25.104063
-0.83356963
-30.175819
-0.90522455
-36.28873
-0.94900022
-43.681599
-0.94257322
-52.647308
-0.85009002
-63.53934
-0.62826853
-76.801051
-92.981662
-1.4231294e-05
-0.0076720166
-3.2806954e-05
-0.010863
-5.4351505e-05
-0.014308294
-7.5719097e-05
-0.018552638
-8.8681687e-05
-0.023954284
-0.00011862947
-0.030965175
-0.00031992364
-0.037731822
-0.00057107577
-0.045596347
-0.00087006101
-0.05423114
-0.0012314036
-0.065321998
-0.0016556624
-0.077957609
-0.0021740552
-0.093700541
-0.0027739722
-0.11204422
-0.0034979144
-0.13452814
-0.0043514166
-0.16106695
-0.0053771538
-0.19329914
-0.0065907884
-0.23162395
-0.0080578819
-0.27793835
-0.0097958248
-0.33325344
-0.011872979
-0.3999576
-0.014334429
-0.47986005
-0.017278484
-0.57607026
-0.020803993
-0.69146397
-0.025091694
-0.83011844
-0.030331518
-0.99622159
-0.03681728
-1.1949211
-0.044921609
-1.4316574
-0.055103882
-1.7128518
-0.067822941
-2.0460579
-0.083505858
-2.4408989
-0.10253456
-2.9095837
-0.1252836
-3.4675063
-0.15214968
-4.1336528
-0.18359974
-4.9309121
-0.22018028
-5.8864917
-0.26244125
-7.0338257
-0.31097855
-8.4112861
-0.36636196
-10.067197
-0.42902876
-12.058252
-0.49904594
-14.455276
-0.57597847
-17.341253
-0.65841957
-20.820236
-0.7431957
-25.017775
-0.82462491
-30.091761
-0.89757829
-36.212938
-0.94433066
-43.632412
-0.94374895
-52.645644
-0.86214586
-63.618365
-0.65541005
-77.00805
-93.395752
-1.6426472e-05
-0.0076559477
-3.4500977e-05
-0.010844762
-5.3736418e-05
-0.014288207
-7.0885506e-05
-0.018534235
-7.4463536e-05
-0.023948521
-0.00010594786
-0.030930831
-0.00029923969
-0.037535583
-0.00053544627
-0.045356631
-0.00081828769
-0.053944073
-0.0011560331
-0.06497905
-0.0015577029
-0.077549626
-0.0020406402
-0.093209921
-0.0026086332
-0.11146686
-0.0032936204
-0.13383173
-0.004098187
-0.16024878
-0.0050698846
-0.19231098
-0.0062240866
-0.23044995
-0.0076154171
-0.27652305
-0.0092562338
-0.3315839
-0.011217567
-0.39796152
-0.013542022
-0.47749347
-0.016328343
-0.57323256
-0.019664312
-0.68806532
-0.023726768
-0.82597928
-0.028733889
-0.99112072
-0.03498978
-1.1885508
-0.042876001
-1.4236325
-0.052863589
-1.7026972
-0.065410392
-2.0333125
-0.080931725
-2.4251446
-0.099786521
-2.8904591
-0.12232741
-3.4446555
-0.14893213
-4.1066948
-0.18005459
-4.8993933
-0.21623846
-5.8498713
-0.25801974
-6.9915731
-0.30600043
-8.3628009
-0.36076972
-10.011885
-0.42277377
-11.99566
-0.49212401
-14.385251
-0.56845321
-17.264089
-0.65047976
-20.737163
-0.73519313
-24.93152
-0.8177799
-30.006284
-0.89166737
-36.136309
-0.9415767
-43.580164
-0.94728339
-52.637859
-0.87638808
-63.686729
-0.68547326
-77.199415
-93.784566
-1.4383981e-05
-0.007641176
-2.9454713e-05
-0.010828946
-4.4909428e-05
-0.014271804
-5.6560978e-05
-0.018520945
-5.020709e-05
-0.023952686
-8.2702885e-05
-0.030895355
-0.00026875453
-0.037346717
-0.00049206513
-0.04512973
-0.00075884952
-0.053673187
-0.0010787856
-0.064653849
-0.0014574884
-0.077164895
-0.0019147608
-0.092745071
-0.0024502934
-0.11092259
-0.0030972447
-0.13317404
-0.0038578755
-0.15947543
-0.0047829303
-0.1913704
-0.0058768308
-0.22933757
-0.0071867959
-0.27519068
-0.0087300199
-0.33001346
-0.010578245
-0.39608019
-0.01277063
-0.47526077
-0.01540919
-0.57054491
-0.018580443
-0.68483405
-0.02244497
-0.82204151
-0.027232191
-0.98624403
-0.033277163
-1.1823972
-0.040975309
-1.4158031
-0.050799232
-1.6927162
-0.063203285
-2.0207217
-0.078585961
-2.4095425
-0.097288252
-2.8715019
-0.11964178
-3.4220075
-0.14600735
-4.0799911
-0.17682902
-4.8681902
-0.21265187
-5.8136273
-0.25400836
-6.9497613
-0.30150343
-8.3148175
-0.35572756
-9.9571325
-0.41716076
-11.933651
-0.48595872
-14.315787
-0.56182187
-17.1874
-0.64359589
-20.654359
-0.72842698
-24.845128
-0.81227842
-29.919421
-0.88753857
-36.058283
-0.94091912
-43.524472
-0.9530818
-52.623697
-0.89312289
-63.744431
-0.7186006
-77.374559
-94.147723
-1.3055804e-05
-0.0076293193
-2.5385649e-05
-0.010816322
-3.6586907e-05
-0.014260044
-4.2820332e-05
-0.018513522
-2.6101685e-05
-0.023967523
-6.0057098e-05
-0.030858843
-0.00023639357
-0.037168015
-0.00044762967
-0.044915229
-0.00069927249
-0.053417832
-0.0010022791
-0.064346036
-0.0013593422
-0.07680223
-0.0017912575
-0.092306152
-0.0022969605
-0.11040864
-0.0029098853
-0.13255097
-0.0036317288
-0.15874153
-0.0045090384
-0.19047845
-0.0055374129
-0.22829163
-0.0067708666
-0.27393594
-0.0082235767
-0.32853522
-0.009964192
-0.39430874
-0.012030764
-0.47315687
-0.014522904
-0.56800753
-0.017534173
-0.68176777
-0.021229076
-0.81827987
-0.025823333
-0.9815687
-0.031678161
-1.1764444
-0.039220256
-1.4081429
-0.048913079
-1.6828821
-0.061204188
-2.0082618
-0.076474873
-2.3940718
-0.09504609
-2.8526956
-0.11723371
-3.3995448
-0.14339006
-4.0535151
-0.17395212
-4.8372644
-0.2094524
-5.7777236
-0.25043438
-6.9083421
-0.29749484
-8.2672866
-0.35125046
-9.9028651
-0.41221657
-11.872123
-0.48057063
-14.246778
-0.5561125
-17.111043
-0.63779408
-20.571667
-0.72293649
-24.758423
-0.80807267
-29.831251
-0.88526476
-35.9783
-0.94241065
-43.464969
-0.96121854
-52.602926
-0.9124761
-63.791675
-0.75491198
-77.532851
-94.484779
-9.9151846e-06
-0.0076187515
-1.8909275e-05
-0.010806305
-2.5355091e-05
-0.014252257
-2.6072342e-05
-0.018511253
-4.5507628e-08
-0.02399122
-3.8216028e-05
-0.030818164
-0.00020492539
-0.036998746
-0.00040597371
-0.044711007
-0.00064381937
-0.053176327
-0.0009312815
-0.064053901
-0.0012676615
-0.07646053
-0.0016768586
-0.091890233
-0.002153464
-0.10992421
-0.0027351411
-0.13195964
-0.0034187379
-0.15804652
-0.0042454583
-0.18963781
-0.0052126005
-0.22730792
-0.0063740688
-0.27275438
-0.0077405157
-0.32714442
-0.0093775478
-0.39264211
-0.011324309
-0.47117419
-0.013678659
-0.56560956
-0.016535485
-0.67885788
-0.020069752
-0.81468127
-0.024499238
-0.97706124
-0.030198584
-1.1706513
-0.037617322
-1.4006117
-0.047213732
-1.6731515
-0.059422974
-1.995893
-0.074608592
-2.3786974
-0.093078643
-2.8340033
-0.11512994
-3.3772323
-0.14110297
-4.0272366
-0.17143295
-4.8065856
-0.2066551
-5.7421139
-0.24730609
-6.8672709
-0.29400056
-8.220139
-0.34736675
-9.8490033
-0.40795617
-11.810985
-0.47599653
-14.178094
-0.55134926
-17.034886
-0.63310524
-20.488919
-0.71874708
-24.671231
-0.80538995
-29.741673
-0.88494556
-35.89595
-0.94611344
-43.401309
-0.97180262
-52.575233
-0.93459643
-63.827207
-0.79449839
-77.673818
-94.795207
-9.7339247e-06
-0.0076096469
-1.6484198e-05
-0.010798868
-1.9096777e-05
-0.014248639
-1.4543809e-05
-0.018514526
1.9439703e-05
-0.024023062
-2.3277697e-05
-0.030773138
-0.00018122221
-0.036838473
-0.00037147712
-0.044517718
-0.00059513335
-0.052949263
-0.00086706166
-0.06377756
-0.0011836299
-0.076138896
-0.0015704418
-0.091497031
-0.0020192822
-0.10946794
-0.0025701217
-0.13139962
-0.0032146338
-0.15739116
-0.0039934833
-0.18884574
-0.0049033223
-0.22638225
-0.0059957036
-0.2716428
-0.0072790942
-0.32583801
-0.0088165743
-0.39107686
-0.010649079
-0.46930814
-0.012874371
-0.56334374
-0.015588638
-0.67609459
-0.018974326
-0.81123646
-0.023265882
-0.97269847
-0.028844575
-1.1649873
-0.036169295
-1.3931851
-0.045703491
-1.6634958
-0.057863147
-1.9835884
-0.072998181
-2.3633898
-0.091400412
-2.815396
-0.11334078
-3.3550481
-0.13914795
-4.0011412
-0.16926898
-4.7761329
-0.20425401
-5.7067593
-0.24463493
-6.8264886
-0.29103357
-8.1733062
-0.34409737
-9.7954616
-0.40440286
-11.750147
-0.47225406
-14.109611
-0.54757498
-16.958772
-0.62956464
-20.405953
-0.71590902
-24.583353
-0.80426983
-29.650569
-0.88660722
-35.810911
-0.9522716
-43.333102
-0.98477478
-52.540497
-0.95959313
-63.850764
-0.83760311
-77.796883
-95.078622
-7.399588e-06
-0.0076029346
-1.0733658e-05
-0.010794968
-8.4252234e-06
-0.014250073
2.7979802e-06
-0.01852444
4.4385107e-05
-0.024062522
-2.2728372e-06
-0.030724268
-0.00015102225
-0.036687481
-0.00033105938
-0.044334786
-0.00054143498
-0.05273562
-0.00079889392
-0.063515847
-0.0010970074
-0.075835961
-0.0014625926
-0.091125342
-0.0018865515
-0.10903689
-0.0024074471
-0.13086997
-0.003012805
-0.15677543
-0.0037456991
-0.18810023
-0.0046001478
-0.22551271
-0.0056259361
-0.27059876
-0.0068296566
-0.3246122
-0.008277384
-0.38960234
-0.010009169
-0.46754391
-0.012115104
-0.56119855
-0.014698184
-0.67346395
-0.01794498
-0.80793237
-0.022123037
-0.96845152
-0.027611531
-1.1594167
-0.034871177
-1.3858279
-0.044377563
-1.6538737
-0.056528388
-1.9713001
-0.071651731
-2.348103
-0.090001502
-2.796852
-0.11184256
-3.3329754
-0.13750934
-3.9751993
-0.16745557
-4.7458693
-0.20224476
-5.6716163
-0.24241433
-6.7859349
-0.28858849
-8.1267158
-0.3414363
-9.7421529
-0.40157676
-11.689488
-0.46935976
-14.041208
-0.54480079
-16.882548
-0.62720532
-20.322583
-0.71445197
-24.494579
-0.80469863
-29.557823
-0.89018085
-35.722931
-0.96105107
-43.259688
-1.0003444
-52.498342
-0.98775743
-63.862735
-0.88425433
-77.901667
-95.334442
-6.8801269e-06
-0.0075975895
-7.5635463e-06
-0.010793929
-9.1139838e-07
-0.014256026
1.6262141e-05
-0.018540548
6.2856988e-05
-0.024107204
1.0417322e-05
-0.030669814
-0.00013034659
-0.036544699
-0.00030128182
-0.044161062
-0.00049944132
-0.052534424
-0.00074315764
-0.063268066
-0.001023486
-0.075551077
-0.0013684206
-0.09077453
-0.0017679725
-0.10863062
-0.0022598155
-0.13036971
-0.0028277609
-0.15619762
-0.0035162481
-0.18739962
-0.0043174266
-0.2246971
-0.0052800255
-0.26961867
-0.006411092
-0.32346016
-0.0077803058
-0.38820787
-0.0094203667
-0.46587339
-0.011416688
-0.55916558
-0.013880178
-0.67095626
-0.017005912
-0.80475377
-0.021081682
-0.96431251
-0.026505594
-1.1539179
-0.033741027
-1.3785036
-0.043264547
-1.6442451
-0.055450055
-1.9589892
-0.070578479
-2.3328247
-0.088885067
-2.7783658
-0.11064813
-3.3109959
-0.13620753
-3.9493803
-0.16602212
-4.7157536
-0.2006656
-5.6366367
-0.24067926
-6.7455561
-0.28669998
-8.080298
-0.33942989
-9.68898
-0.39950966
-11.628906
-0.46735953
-13.972751
-0.54307558
-16.80606
-0.62607922
-20.238615
-0.71443151
-24.404679
-0.80676306
-29.463229
-0.89556225
-35.631809
-0.97166802
-43.181015
-1.0193429
-52.447589
-1.0192904
-63.862679
-0.93466368
-77.987675
-95.562122
-4.7836625e-06
-0.0075936934
-2.3947072e-06
-0.010795577
9.1319904e-06
-0.014266458
3.3315601e-05
-0.018563607
8.3931031e-05
-0.024155773
2.6049008e-05
-0.030610052
-0.00010619553
-0.036410442
-0.00026775966
-0.043996897
-0.00045380087
-0.05234544
-0.00068409831
-0.063033903
-0.00094750238
-0.075283313
-0.0012738675
-0.090442577
-0.0016487883
-0.10824924
-0.0021109276
-0.12989953
-0.0026432338
-0.15565584
-0.0032891558
-0.18674216
-0.0040393033
-0.22393312
-0.0049404684
-0.26870073
-0.0060078927
-0.32237252
-0.0073002916
-0.38689102
-0.0088451148
-0.46429903
-0.010737151
-0.55723786
-0.013095258
-0.66855519
-0.016130096
-0.80166742
-0.020137009
-0.96024428
-0.025528043
-1.1484543
-0.032785328
-1.3711608
-0.042370176
-1.6345595
-0.054608759
-1.9466312
-0.069749104
-2.3175421
-0.088038146
-2.7599063
-0.10975529
-3.2890729
-0.13523952
-3.9236482
-0.16496161
-4.6857438
-0.19950989
-5.6017676
-0.23942979
-6.7052884
-0.28537409
-8.0339747
-0.33806748
-9.6358609
-0.39821043
-11.568275
-0.46625963
-13.904108
-0.54241746
-16.729142
-0.62621207
-20.153846
-0.71588919
-24.31339
-0.81056063
-29.366496
-0.9029787
-35.537222
-0.98482047
-43.096749
-1.0413289
-52.388102
-1.0542279
-63.849705
-0.98901302
-78.054313
-95.761155
-2.7736307e-06
-0.0075920694
2.7398913e-06
-0.010800423
1.9321731e-05
-0.014282
5.1763912e-05
-0.018594889
0.00010523562
-0.024207272
4.2536578e-05
-0.030545542
-8.1435812e-05
-0.036284562
-0.00023415183
-0.043841661
-0.00040842228
-0.05216837
-0.00062564527
-0.062812973
-0.00087171367
-0.075033075
-0.0011799828
-0.090128917
-0.0015324989
-0.10789057
-0.0019666083
-0.12945768
-0.0024648099
-0.1551486
-0.0030700111
-0.18612581
-0.0037718133
-0.22321805
-0.0046166373
-0.26783988
-0.0056203605
-0.32134956
-0.0068342906
-0.38565395
-0.0082870486
-0.46281841
-0.010081793
-0.55540971
-0.012346879
-0.66625002
-0.015313303
-0.7986534
-0.019292109
-0.95620903
-0.024701812
-1.1429783
-0.032027407
-1.3637573
-0.041692808
-1.6248022
-0.053991369
-1.9342234
-0.069170057
-2.3022326
-0.087472777
-2.7414457
-0.1091724
-3.2671806
-0.13461559
-3.897971
-0.16428743
-4.6557994
-0.19879173
-5.5669597
-0.23868669
-6.6650643
-0.28462581
-7.9876755
-0.33738263
-9.5826959
-0.39770063
-11.507484
-0.46610137
-13.835126
-0.54286451
-16.651632
-0.62765973
-20.068055
-0.71920872
-24.220126
-0.81625775
-29.267552
-0.91252441
-35.438926
-1.000568
-43.006521
-1.0662925
-52.319783
-1.092741
-63.82349
-1.0473929
-78.101059
-95.930888
-1.9284038e-06
-0.0075915206
5.6581382e-06
-0.010807356
2.6234233e-05
-0.014301583
6.6699383e-05
-0.01863422
0.00012006251
-0.02425874
5.1841289e-05
-0.030475604
-6.4584067e-05
-0.036166321
-0.00020901592
-0.04369481
-0.00037223604
-0.052002479
-0.00057685277
-0.062604758
-0.00080634898
-0.074799589
-0.0010963648
-0.089833716
-0.0014267837
-0.10755421
-0.0018345748
-0.12904246
-0.0023004544
-0.15467398
-0.0028668683
-0.18554879
-0.0035216955
-0.22255052
-0.004317803
-0.26702834
-0.0052601552
-0.32038862
-0.0063941378
-0.38449749
-0.0077638643
-0.46142161
-0.0094776124
-0.55366333
-0.011670371
-0.66401821
-0.014578321
-0.79569888
-0.018547298
-0.9521852
-0.024023343
-1.1374379
-0.031455791
-1.3562496
-0.041221051
-1.6149488
-0.053606059
-1.9217342
-0.06885564
-2.2868585
-0.087198588
-2.7229525
-0.10891075
-3.2452848
-0.13434849
-3.8723097
-0.16401482
-4.6258729
-0.19853386
-5.5321517
-0.23846098
-6.6248249
-0.2844819
-7.9413121
-0.3374019
-9.5293844
-0.39801517
-11.446413
-0.4669078
-13.765662
-0.54445281
-16.573343
-0.63045704
-19.981027
-0.72421732
-24.124599
-0.82394893
-29.165989
-0.9244577
-35.336502
-1.0188183
-42.910208
-1.0943734
-52.242017
-1.1348842
-63.783142
-1.110078
-78.127223
-96.070698
-2.6156999e-07
-0.0075927535
1.0048568e-05
-0.010816966
3.5214064e-05
-0.014325735
8.5406396e-05
-0.018683219
0.00013734669
-0.024308843
6.4438674e-05
-0.030401037
-4.4435366e-05
-0.036055664
-0.00018056887
-0.04355628
-0.00033313727
-0.051847349
-0.00052635471
-0.062408048
-0.00074194991
-0.074580145
-0.0010145895
-0.089556039
-0.0013219925
-0.10724112
-0.0017036268
-0.12865364
-0.0021385293
-0.15423075
-0.0026678669
-0.18500917
-0.0032800984
-0.22192606
-0.0040270577
-0.26626661
-0.0049096652
-0.31948828
-0.0059708343
-0.383415
-0.0072692354
-0.46009763
-0.0089187868
-0.55198314
-0.011057748
-0.66184284
-0.013931568
-0.79278195
-0.017916737
-0.94814961
-0.023485465
-1.1318103
-0.031049417
-1.348617
-0.04094285
-1.604975
-0.053449308
-1.9091321
-0.068795458
-2.2713975
-0.087206919
-2.7044015
-0.10896246
-3.2233571
-0.13443168
-3.8466293
-0.16413858
-4.5959202
-0.19872759
-5.4972901
-0.23876306
-6.5844954
-0.28495014
-7.894801
-0.33813048
-9.4758292
-0.3991662
-11.384933
-0.46870208
-13.695568
-0.54720947
-16.494093
-0.63464663
-19.89253
-0.73072616
-24.026682
-0.83358579
-29.061337
-0.93877504
-35.229541
-1.0397461
-42.807521
-1.1257344
-52.153857
-1.1808111
-63.72821
-1.1770989
-78.132263
-96.179835
7.3484659e-07
-0.0075951275
1.3007715e-05
-0.010828544
4.1849215e-05
-0.014353561
0.00010166105
-0.01874184
0.00014965738
-0.024355092
7.3112497e-05
-0.030322959
-2.8514939e-05
-0.035952351
-0.00015674001
-0.043425701
-0.00029876413
-0.051702846
-0.00047980796
-0.062223598
-0.00068160676
-0.074374657
-0.00093905986
-0.089293733
-0.0012259414
-0.10694875
-0.0015834806
-0.12828919
-0.0019890318
-0.15381712
-0.002482382
-0.18450601
-0.0030584776
-0.22133821
-0.0037577063
-0.26555313
-0.0045789885
-0.3186498
-0.0055796089
-0.38239365
-0.0068198467
-0.45883243
-0.0084087977
-0.55036424
-0.010501003
-0.65971498
-0.013375565
-0.78986519
-0.017427794
-0.94404816
-0.023115923
-1.1260648
-0.030826079
-1.3408404
-0.040878447
-1.5948451
-0.053532937
-1.8963861
-0.06900212
-2.2558188
-0.087509134
-2.6857615
-0.10933989
-3.201362
-0.13487928
-3.8208879
-0.1646763
-4.5658888
-0.19939462
-5.4623132
-0.23961519
-6.5439971
-0.28605018
-7.8480588
-0.33960682
-9.4219134
-0.40118904
-11.322919
-0.47153095
-13.624679
-0.5511917
-16.413699
-0.64027945
-19.802347
-0.73888421
-23.926153
-0.84515763
-28.953284
-0.9554842
-35.117633
-1.0635457
-42.69795
-1.160434
-52.055131
-1.2306945
-63.658074
-1.2488223
-78.115448
-96.257604
1.8622739e-06
-0.0075988124
1.5921793e-05
-0.010841961
4.8097958e-05
-0.014384784
0.0001179887
-0.018810573
0.00016043723
-0.02439588
8.5600404e-05
-0.030246591
-9.2781725e-06
-0.035855858
-0.00012970636
-0.043303001
-0.00026144061
-0.051568756
-0.00043107293
-0.062050691
-0.00061891562
-0.074183285
-0.00086171569
-0.089046233
-0.0011302666
-0.10667495
-0.0014652014
-0.12794757
-0.0018433096
-0.15343128
-0.0023037296
-0.18403606
-0.0028429818
-0.22078763
-0.0034956628
-0.26488677
-0.0042615292
-0.3178675
-0.0052104611
-0.38142501
-0.0063983245
-0.45762095
-0.0079292264
-0.54880521
-0.0099937699
-0.65761721
-0.012902589
-0.78691739
-0.017061314
-0.93984427
-0.022898229
-1.1201754
-0.030782322
-1.3328955
-0.041022109
-1.5845344
-0.053850574
-1.8834736
-0.06946804
-2.2401
-0.088098113
-2.6670075
-0.11003703
-3.1792686
-0.13568756
-3.7950464
-0.1656259
-4.5357296
-0.20054079
-5.4271553
-0.2410177
-6.5032599
-0.28780128
-7.8009854
-0.34183232
-9.3675389
-0.40410643
-11.260225
-0.47541521
-13.552833
-0.55642036
-16.331965
-0.64738891
-19.710248
-0.7488074
-23.822718
-0.85878494
-28.841524
-0.97441456
-35.00054
-1.0904451
-42.580606
-1.1985835
-51.945472
-1.2845981
-63.572183
-1.3253096
-78.076068
-96.303215
3.3397082e-06
-0.0076041282
1.9529293e-05
-0.010857533
5.4895546e-05
-0.014419238
0.00013523652
-0.018889783
0.00017095425
-0.024430008
9.9958652e-05
-0.030174131
1.0960685e-05
-0.035765317
-0.00010335057
-0.043186521
-0.0002270074
-0.051442869
-0.00038849843
-0.061886017
-0.00056387696
-0.074004533
-0.00079069304
-0.088814868
-0.0010403098
-0.10642027
-0.0013528803
-0.12762855
-0.0017039357
-0.15307276
-0.002136432
-0.18359443
-0.0026394145
-0.22027373
-0.0032444737
-0.26426847
-0.0039640879
-0.31713192
-0.00486481
-0.38050506
-0.0060011646
-0.45646151
-0.0074968682
-0.54728193
-0.0095631139
-0.65551836
-0.012537299
-0.78390494
-0.016825879
-0.93551147
-0.022834578
-1.1141156
-0.030926555
-1.3247447
-0.041381484
-1.5740112
-0.054412441
-1.870362
-0.070207778
-2.2242079
-0.088989282
-2.6481076
-0.11106993
-3.1570401
-0.13687338
-3.7690603
-0.16700296
-4.5053898
-0.20217483
-5.3917539
-0.24298912
-6.4622009
-0.29021017
-7.7534906
-0.34484485
-9.3125754
-0.40794461
-11.196718
-0.4803859
-13.479863
-0.56293746
-16.24869
-0.65603346
-19.615981
-0.76056862
-23.716112
-0.87456772
-28.725706
-0.99577685
-34.877867
-1.1204207
-42.454724
-1.2400535
-51.824414
-1.3427057
-63.469657
-1.4068052
-78.013369
-96.315783
4.2847173e-06
-0.0076104432
2.2219578e-05
-0.010874809
6.0234602e-05
-0.014456306
0.00015059734
-0.018978952
0.00017830998
-0.024456221
0.00010837673
-0.030102839
2.5207785e-05
-0.035680641
-8.2168688e-05
-0.043076983
-0.00019693495
-0.051325958
-0.00034992582
-0.06172993
-0.00051422768
-0.073836973
-0.00072693612
-0.08859777
-0.00095904647
-0.10618327
-0.001250707
-0.12733069
-0.0015768701
-0.15273941
-0.0019808252
-0.18318162
-0.0024492021
-0.2197948
-0.0030107861
-0.26369416
-0.0036923701
-0.31643506
-0.0045489545
-0.37963018
-0.0056437526
-0.4553449
-0.007127419
-0.54577236
-0.0092261306
-0.65338938
-0.012290629
-0.78080514
-0.016727794
-0.93103386
-0.022938316
-1.1078584
-0.031268998
-1.3163604
-0.041968724
-1.5632491
-0.055230609
-1.857026
-0.071228985
-2.2081198
-0.090190621
-2.6290354
-0.11244674
-3.1346449
-0.13844749
-3.7428869
-0.16882376
-4.4748156
-0.20432182
-5.3560413
-0.24554767
-6.420747
-0.29330775
-7.705473
-0.34866499
-9.256904
-0.41274007
-11.132249
-0.4864888
-13.405596
-0.57079019
-16.163667
-0.66626764
-19.519289
-0.77423527
-23.606088
-0.89268867
-28.605399
-1.020027
-34.74898
-1.1532754
-42.320251
-1.2850677
-51.691646
-1.4052191
-63.349892
-1.4934911
-77.926623
-96.294419
6.0426666e-06
-0.0076185484
2.6302783e-05
-0.0108944
6.7626388e-05
-0.014496617
0.00016805547
-0.019078142
0.00018800966
-0.024474651
0.00011913342
-0.030032549
4.2076907e-05
-0.035602085
-5.8538885e-05
-0.042974222
-0.00016443636
-0.051218004
-0.00030839245
-0.061582919
-0.00046191606
-0.073680364
-0.0006619679
-0.088393452
-0.00087789026
-0.10596267
-0.0011500257
-0.12705255
-0.0014554069
-0.1524271
-0.0018303628
-0.18279815
-0.0022639512
-0.21935101
-0.0027896289
-0.26315614
-0.0034350102
-0.31577478
-0.0042519945
-0.37879535
-0.0053235251
-0.45425194
-0.0068144839
-0.54425601
-0.0089694306
-0.65120454
-0.012146867
-0.77759307
-0.016758179
-0.92638281
-0.023208828
-1.1013622
-0.031812234
-1.3077048
-0.042787537
-1.5522135
-0.056296268
-1.843446
-0.072511372
-2.1918188
-0.091679238
-2.6097618
-0.11414668
-3.1120442
-0.14039209
-3.7164763
-0.17108184
-4.4439376
-0.20697854
-5.3199429
-0.24870944
-6.3788028
-0.29710632
-7.6568334
-0.35330579
-9.2004037
-0.41850933
-11.066664
-0.49374671
-13.32985
-0.58002203
-16.076664
-0.67812406
-19.419924
-0.78985452
-23.492397
-0.91328023
-28.480157
-1.0473477
-34.61332
-1.1890751
-42.177325
-1.334107
-51.546197
-1.4723463
-63.21234
-1.5856101
-77.815007
-96.238146
5.8018315e-06
-0.0076267291
2.6747561e-05
-0.010914785
6.9801678e-05
-0.014538765
0.00017734159
-0.019184496
0.00018778342
-0.024483662
0.00012257753
-0.029965988
5.0125632e-05
-0.03552823
-4.5981087e-05
-0.042876024
-0.00014532808
-0.051116714
-0.00028041625
-0.061444854
-0.00042185441
-0.073535955
-0.00060818393
-0.088202983
-0.00080787845
-0.10575845
-0.0010598028
-0.12679484
-0.0013444979
-0.15213569
-0.0016943998
-0.18243997
-0.0020966521
-0.21893888
-0.0025935391
-0.26264736
-0.003205632
-0.31514844
-0.0039897296
-0.37799423
-0.0050490192
-0.45317245
-0.0065578839
-0.54272333
-0.0087874026
-0.64894743
-0.012110636
-0.77423797
-0.01694471
-0.92151253
-0.023675927
-1.0945895
-0.032583332
-1.2987497
-0.043847114
-1.5408944
-0.05761025
-1.8296173
-0.074063182
-2.175286
-0.093465653
-2.5902603
-0.11618219
-3.0892018
-0.14272153
-3.6897804
-0.17378714
-4.4126953
-0.21017278
-5.2833703
-0.25249856
-6.3362797
-0.30163581
-7.6074685
-0.35881051
-9.1429416
-0.42529569
-10.999811
-0.50220651
-13.252444
-0.590682
-15.987449
-0.69166289
-19.317607
-0.80746394
-23.374818
-0.93624003
-28.349697
-1.077737
-34.470221
-1.2281312
-42.025236
-1.3873048
-51.387284
-1.544348
-63.056262
-1.6833743
-77.677711
-96.146019
7.6926673e-06
-0.0076367214
3.1238921e-05
-0.010937765
7.8356338e-05
-0.014584922
0.00019254909
-0.019297519
0.00019560748
-0.024485344
0.0001350261
-0.029904097
6.7920604e-05
-0.03545977
-2.2794579e-05
-0.042783271
-0.00011580168
-0.051021845
-0.00024281331
-0.061314923
-0.00037304065
-0.073402875
-0.00054695787
-0.088025031
-0.00073191254
-0.10556913
-0.00096579033
-0.12655533
-0.0012298429
-0.15186515
-0.0015558924
-0.18210594
-0.0019324071
-0.21855278
-0.0024012139
-0.26216701
-0.0029841951
-0.31455152
-0.0037501921
-0.37721163
-0.0048071939
-0.45209552
-0.006344719
-0.54116243
-0.0086726159
-0.64659215
-0.012182628
-0.77069668