/*--------------------------------*- C++ -*----------------------------------*\
  =========                 |
  \\      /  F ield         | OpenFOAM: The Open Source CFD Toolbox
   \\    /   O peration     | Website:  https://openfoam.org
    \\  /    A nd           | Version:  8
     \\/     M anipulation  |
\*---------------------------------------------------------------------------*/
FoamFile
{
    version     2.0;
    format      ascii;
    class       pointVectorField;
    location    "0.10999";
    object      pointDisplacement;
}
// * * * * * * * * * * * * * * * * * * * * * * * * * * * * * * * * * * * * * //

dimensions      [0 1 0 0 0 0 0];

internalField   nonuniform List<vector> 
40800
(
(0.002577706 0 0.0022452043)
(0.0025851771 0 0.0018745331)
(0.0025847673 0 0.0018760912)
(0.0025770868 0 0.0022544574)
(0.0025847415 0 0.0018750234)
(0.0025770688 0 0.0022533511)
(0.0025846786 0 0.0018736076)
(0.0025770102 0 0.0022521248)
(0.0025845576 0 0.0018719528)
(0.0025768956 0 0.0022506985)
(0.0025843531 0 0.0018700273)
(0.0025767 0 0.0022490416)
(0.0025840295 0 0.0018678015)
(0.0025763888 0 0.0022471302)
(0.0025835374 0 0.00186525)
(0.0025759137 0 0.0022449454)
(0.0025828096 0 0.0018623561)
(0.0025752088 0 0.0022424778)
(0.002581754 0 0.0018591198)
(0.0025741841 0 0.002239735)
(0.0025802463 0 0.0018555688)
(0.0025727176 0 0.0022367534)
(0.0025781193 0 0.001851776)
(0.0025706451 0 0.0022336145)
(0.0025751496 0 0.0018478839)
(0.0025677472 0 0.0022304703)
(0.0025710414 0 0.0018441416)
(0.0025637333 0 0.0022275783)
(0.0025654064 0 0.0018409575)
(0.0025582212 0 0.0022253522)
(0.0025577408 0 0.0018389728)
(0.0025507144 0 0.0022244342)
(0.0025473984 0 0.0018391655)
(0.0025405756 0 0.0022257923)
(0.0025335651 0 0.0018429928)
(0.0025269996 0 0.0022308568)
(0.0025152342 0 0.0018525817)
(0.0025089887 0 0.0022416981)
(0.0024911928 0 0.0018709731)
(0.0024853368 0 0.0022612542)
(0.0024600257 0 0.001902395)
(0.0024546311 0 0.0022935922)
(0.0024201517 0 0.0019525176)
(0.002415285 0 0.0023441633)
(0.0023699076 0 0.0020286339)
(0.0023656174 0 0.002419983)
(0.0023076932 0 0.00213961)
(0.0023039927 0 0.002529609)
(0.0022321804 0 0.0022955331)
(0.002229026 0 0.0026828047)
(0.0021425605 0 0.0025068965)
(0.0021398329 0 0.0028897331)
(0.0020387822 0 0.0027830923)
(0.0020362818 0 0.003159508)
(0.0019217176 0 0.003130428)
(0.0019191784 0 0.0034982425)
(0.0017932014 0 0.0035500503)
(0.0017903299 0 0.0039069561)
(0.0016559096 0 0.0040361818)
(0.0016524442 0 0.004379782)
(0.0015131018 0 0.004575403)
(0.0015088734 0 0.0049032477)
(0.0013683219 0 0.0051472807)
(0.0013632957 0 0.0054569138)
(0.0012250904 0 0.0057266195)
(0.0012193717 0 0.0060157008)
(0.0010865903 0 0.0062865905)
(0.0010803908 0 0.0065531058)
(0.00095544834 0 0.0068022176)
(0.00094903194 0 0.0070447164)
(0.00083359278 0 0.0072529564)
(0.00082722327 0 0.0074706993)
(0.00072217771 0 0.0076237448)
(0.00071607613 0 0.0078167763)
(0.00062165687 0 0.0079053011)
(0.00061598234 0 0.0080743807)
(0.00053192303 0 0.008092524)
(0.00052677243 0 0.0082389242)
(0.00045245477 0 0.0081825608)
(0.00044786895 0 0.0083078507)
(0.00038256484 0 0.0081739238)
(0.00037855498 0 0.0082798631)
(0.00032139256 0 0.0080639594)
(0.00031793785 0 0.0081522369)
(0.00026794238 0 0.0078466674)
(0.00026500251 0 0.0079187589)
(0.00022137086 0 0.0075146339)
(0.00021890714 0 0.0075720216)
(0.00018086709 0 0.0070568275)
(0.00017884504 0 0.0071009177)
(0.00014551304 0 0.0064563135)
(0.00014389361 0 0.0064884862)
(0.00011426179 0 0.0056893702)
(0.00011300966 0 0.0057110935)
(8.5867788e-05 0 0.0047219453)
(8.4949217e-05 0 0.0047350256)
(5.8718338e-05 0 0.0035009328)
(5.8109367e-05 0 0.0035074965)
(3.0688811e-05 0 0.0019406412)
(3.0382908e-05 0 0.0019430818)
(0 0 0)
(0 0 0)
(0.0025910638 0 0.0015118106)
(0.0025906643 0 0.0015130838)
(0.0025906389 0 0.0015116479)
(0.0025905724 0 0.0015099642)
(0.0025904466 0 0.0015079868)
(0.0025902352 0 0.0015056771)
(0.0025899021 0 0.0015029935)
(0.0025893969 0 0.0014998967)
(0.0025886508 0 0.001496354)
(0.0025875704 0 0.0014923472)
(0.002586029 0 0.0014878842)
(0.0025838565 0 0.0014830157)
(0.002580826 0 0.0014778609)
(0.0025766372 0 0.0014726449)
(0.0025708963 0 0.0014677513)
(0.0025630928 0 0.0014637988)
(0.0025525733 0 0.0014617482)
(0.0025385157 0 0.0014630519)
(0.0025199063 0 0.0014698591)
(0.0024955268 0 0.0014852881)
(0.0024639603 0 0.0015137035)
(0.0024236309 0 0.0015609619)
(0.0023728921 0 0.0016346111)
(0.0023101769 0 0.0017438063)
(0.0022342116 0 0.0018989592)
(0.0021442608 0 0.0021109494)
(0.0020403503 0 0.0023895422)
(0.0019234159 0 0.0027413728)
(0.0017953201 0 0.0031678876)
(0.0016587095 0 0.0036635873)
(0.001516756 0 0.0042152769)
(0.0013728751 0 0.0048026609)
(0.0012304496 0 0.0054005253)
(0.0010925549 0 0.0059817647)
(0.00096175849 0 0.0065208734)
(0.00083997786 0 0.0069965879)
(0.0007283994 0 0.0073930156)
(0.00062753256 0 0.0077000653)
(0.00053733012 0 0.0079119927)
(0.00045732826 0 0.0080255064)
(0.00038687578 0 0.0080388127)
(0.00032514287 0 0.0079491869)
(0.00027116396 0 0.0077507955)
(0.00022409497 0 0.0074361938)
(0.00018312245 0 0.0069943351)
(0.00014733159 0 0.0064083479)
(0.000115676 0 0.0056544031)
(8.6905715e-05 0 0.0046981866)
(5.9403198e-05 0 0.003486339)
(3.1025452e-05 0 0.0019332964)
(0 0 0)
(0.0025954009 0 0.0011568717)
(0.0025950115 0 0.001157993)
(0.0025949819 0 0.0011563125)
(0.0025949097 0 0.0011543379)
(0.0025947763 0 0.0011520171)
(0.0025945547 0 0.0011492997)
(0.0025942079 0 0.0011461331)
(0.0025936846 0 0.0011424652)
(0.0025929145 0 0.0011382489)
(0.002591802 0 0.001133449)
(0.0025902183 0 0.0011280544)
(0.0025879898 0 0.0011220942)
(0.0025848858 0 0.0011156642)
(0.0025806007 0 0.0011089638)
(0.0025747348 0 0.0011023509)
(0.0025667701 0 0.0010964198)
(0.0025560454 0 0.0010921121)
(0.0025417301 0 0.0010908741)
(0.0025228037 0 0.0010948784)
(0.0024980437 0 0.0011073517)
(0.0024660317 0 0.001132824)
(0.0024251978 0 0.0011773311)
(0.0023739147 0 0.0012486839)
(0.0023106527 0 0.0013563069)
(0.0022341999 0 0.0015108989)
(0.0021439022 0 0.0017237133)
(0.0020398693 0 0.0020048456)
(0.001923106 0 0.0023611948)
(0.0017955053 0 0.0027944508)
(0.0016596827 0 0.0032993474)
(0.0015187182 0 0.0038628896)
(0.0013758928 0 0.0044649251)
(0.0012344449 0 0.0050802661)
(0.0010973335 0 0.005681604)
(0.00096705839 0 0.0062429941)
(0.00084551891 0 0.0067425463)
(0.00073392717 0 0.0071635998)
(0.00063284505 0 0.007495296)
(0.00054228446 0 0.0077312573)
(0.00046183983 0 0.0078677347)
(0.00039089933 0 0.0079026117)
(0.0003286664 0 0.0078330639)
(0.00027420679 0 0.0076533835)
(0.0002266798 0 0.0073560929)
(0.00018527144 0 0.0069301222)
(0.00014907105 0 0.0063586544)
(0.00011703356 0 0.0056177681)
(8.7905459e-05 0 0.0046729166)
(6.0064879e-05 0 0.0034705405)
(3.1352036e-05 0 0.0019252903)
(0 0 0)
(0.002598237 0 0.00080955493)
(0.0025978561 0 0.0008105289)
(0.0025978201 0 0.00080860969)
(0.0025977396 0 0.00080635085)
(0.0025975953 0 0.00080369154)
(0.0025973598 0 0.00080057174)
(0.0025969947 0 0.00079692737)
(0.0025964477 0 0.00079269296)
(0.0025956467 0 0.00078780617)
(0.0025944943 0 0.0007822148)
(0.0025928584 0 0.00077588801)
(0.0025905624 0 0.00076883357)
(0.0025873707 0 0.00076112334)
(0.0025829725 0 0.0007529312)
(0.0025769611 0 0.00074458842)
(0.0025688107 0 0.00073666351)
(0.0025578512 0 0.00073007662)
(0.0025432436 0 0.00072626337)
(0.0025239618 0 0.00072740688)
(0.0024987807 0 0.00073691657)
(0.0024662791 0 0.00075953487)
(0.0024248932 0 0.00080142143)
(0.0023730186 0 0.00087067475)
(0.0023091662 0 0.00097696329)
(0.0022321935 0 0.0011312191)
(0.0021415368 0 0.001345078)
(0.0020373948 0 0.001628922)
(0.0019208454 0 0.0019898466)
(0.0017938135 0 0.0024297337)
(0.0016588823 0 0.0029435062)
(0.0015190349 0 0.0035183443)
(0.0013774123 0 0.0041342383)
(0.0012371028 0 0.0047660662)
(0.0011009421 0 0.0053863805)
(0.00097135506 0 0.0059688822)
(0.0008502159 0 0.0064911459)
(0.00073875625 0 0.0069358058)
(0.00063758685 0 0.0072912812)
(0.00054677735 0 0.0075505769)
(0.00046598072 0 0.0077094719)
(0.00039462729 0 0.0077655129)
(0.00033195586 0 0.0077157508)
(0.00027706475 0 0.0075545645)
(0.00022912023 0 0.0072744394)
(0.00018730991 0 0.0068642747)
(0.00015072813 0 0.0063073002)
(0.00011833198 0 0.0055795164)
(8.8865291e-05 0 0.0046461736)
(6.0702299e-05 0 0.0034535616)
(3.1667997e-05 0 0.0019166306)
(0 0 0)
(0.0025996182 0 0.0004697016)
(0.0025992421 0 0.0004705295)
(0.0025991975 0 0.00046837224)
(0.0025991061 0 0.00046582993)
(0.0025989478 0 0.00046283345)
(0.0025986942 0 0.00045931285)
(0.0025983062 0 0.00045519262)
(0.0025977297 0 0.00045039405)
(0.002596891 0 0.0004448394)
(0.00259569 0 0.00043845893)
(0.002593992 0 0.00043120193)
(0.0025916161 0 0.00042305386)
(0.0025883221 0 0.00041406196)
(0.0025837928 0 0.00040437354)
(0.0025776143 0 0.00039429162)
(0.0025692519 0 0.00038435652)
(0.0025580261 0 0.0003754643)
(0.0025430887 0 0.00036904049)
(0.0025234127 0 0.00036742929)
(0.0024977734 0 0.00037419928)
(0.0024647403 0 0.0003941425)
(0.0024227558 0 0.00043354384)
(0.0023702414 0 0.00050067911)
(0.002305753 0 0.00060567668)
(0.0022282289 0 0.00075983742)
(0.0021372037 0 0.00097499031)
(0.002032969 0 0.0012617525)
(0.0019166783 0 0.0016273422)
(0.0017902901 0 0.0020737858)
(0.0016563521 0 0.0025961549)
(0.0015177456 0 0.0031817785)
(0.0013774664 0 0.0038107871)
(0.0012384478 0 0.0044581595)
(0.0011033964 0 0.0050963678)
(0.00097465584 0 0.005698837)
(0.00085406939 0 0.0062426969)
(0.00074288244 0 0.0067099381)
(0.00064175083 0 0.0070883063)
(0.00055080032 0 0.007370209)
(0.00046974222 0 0.0075509435)
(0.00039805135 0 0.0076277076)
(0.00033500377 0 0.0075974065)
(0.00027973147 0 0.0074544692)
(0.00023141096 0 0.0071913383)
(0.00018923348 0 0.0067968749)
(0.00015229937 0 0.0062543486)
(0.00011956863 0 0.0055396949)
(8.9783317e-05 0 0.0046179897)
(6.1314261e-05 0 0.0034354226)
(3.1972749e-05 0 0.0019073254)
(0 0 0)
(0.0025995798 0 0.00013715708)
(0.0025992089 0 0.00013784003)
(0.0025991535 0 0.00013544512)
(0.0025990485 0 0.00013261987)
(0.002598873 0 0.00012928688)
(0.0025985977 0 0.00012536626)
(0.002598182 0 0.0001207711)
(0.0025975704 0 0.00011540933)
(0.0025966871 0 0.00010918793)
(0.0025954293 0 0.00010201942)
(0.0025936589 0 9.3832882e-05)
(0.0025911907 0 8.4591032e-05)
(0.002587779 0 7.4315653e-05)
(0.0025831001 0 6.3125854e-05)
(0.0025767316 0 5.1294015e-05)
(0.0025681296 0 3.932875e-05)
(0.0025566042 0 2.8101332e-05)
(0.0025413058 0 1.9182064e-05)
(0.0025212078 0 1.5182666e-05)
(0.0024950707 0 1.9582716e-05)
(0.0024614548 0 3.7071546e-05)
(0.0024188156 0 7.4129495e-05)
(0.002365608 0 0.00013908283)
(0.0023004439 0 0.00024257256)
(0.0022223432 0 0.00039667417)
(0.0021309436 0 0.00061339997)
(0.0020266358 0 0.00090331974)
(0.0019106516 0 0.0012736911)
(0.0017849833 0 0.0017266468)
(0.0016521394 0 0.0022573688)
(0.0015148938 0 0.0028533094)
(0.001376092 0 0.0034947334)
(0.0012385084 0 0.0041567537)
(0.0011047156 0 0.0048118132)
(0.00097697158 0 0.0054331333)
(0.00085708321 0 0.0059974882)
(0.00074630436 0 0.0064862838)
(0.00064533219 0 0.0068866439)
(0.00055434665 0 0.0071904027)
(0.0004731169 0 0.0073923694)
(0.00040116413 0 0.0074893846)
(0.00033780331 0 0.0074781889)
(0.000282201 0 0.0073532281)
(0.00023354692 0 0.0071068955)
(0.00019103793 0 0.006728006)
(0.00015378139 0 0.0061998636)
(0.00012074092 0 0.0054983515)
(9.0657703e-05 0 0.0045884001)
(6.1899633e-05 0 0.0034161475)
(3.2265706e-05 0 0.0018973839)
(0 0 0)
(0.0025981623 0 -0.00018822924)
(0.0025977959 0 -0.00018769092)
(0.0025977276 0 -0.00019032334)
(0.0025976064 0 -0.00019343129)
(0.0025974105 0 -0.00019710046)
(0.0025971095 0 -0.00020142062)
(0.0025966616 0 -0.00020649027)
(0.0025960092 0 -0.00021241474)
(0.0025950743 0 -0.00021930244)
(0.0025937513 0 -0.00022725861)
(0.002591898 0 -0.0002363745)
(0.0025893248 0 -0.00024671058)
(0.0025857797 0 -0.00025827144)
(0.0025809315 0 -0.00027096805)
(0.002574349 0 -0.00028456253)
(0.0025654779 0 -0.0002985821)
(0.0025536264 0 -0.00031205563)
(0.0025379482 0 -0.00032316555)
(0.0025173979 0 -0.00032934354)
(0.0024907117 0 -0.00032725431)
(0.0024564547 0 -0.00031210991)
(0.0024131011 0 -0.00027724607)
(0.0023591449 0 -0.00021413619)
(0.0022932671 0 -0.00011200152)
(0.0022145714 0 4.1868936e-05)
(0.002122798 0 0.00026026024)
(0.002018441 0 0.00055360993)
(0.0019028142 0 0.00092890067)
(0.001777944 0 0.0013883487)
(0.0016462946 0 0.0019272106)
(0.001510526 0 0.0025330363)
(0.0013733293 0 0.0031862176)
(0.0012373164 0 0.0038620322)
(0.0011049226 0 0.0045329389)
(0.00097831649 0 0.0051720221)
(0.00085926423 0 0.0057557876)
(0.00074902305 0 0.0062651138)
(0.00064832805 0 0.0066865542)
(0.00055741119 0 0.0070113985)
(0.00047609857 0 0.0072339644)
(0.00040395918 0 0.0073507292)
(0.00034034827 0 0.0073582544)
(0.00028446782 0 0.0072509715)
(0.00023552334 0 0.0070212167)
(0.00019271925 0 0.0066577517)
(0.00015517089 0 0.0061439101)
(0.00012184632 0 0.0054555349)
(9.1486595e-05 0 0.00455744)
(6.2457209e-05 0 0.0033957586)
(3.2546255e-05 0 0.0018868147)
(0 0 0)
(0.0025954075 0 -0.00050660657)
(0.0025950445 0 -0.00050621194)
(0.0025949611 0 -0.00050908198)
(0.0025948209 0 -0.00051247267)
(0.0025946013 0 -0.00051647806)
(0.0025942707 0 -0.00052119769)
(0.0025937855 0 -0.00052674153)
(0.0025930864 0 -0.00053322822)
(0.0025920926 0 -0.00054078156)
(0.0025906953 0 -0.0005495245)
(0.0025887482 0 -0.00055956866)
(0.0025860563 0 -0.00057099798)
(0.0025823611 0 -0.0005838439)
(0.0025773231 0 -0.00059804901)
(0.0025705009 0 -0.00061341606)
(0.0025613369 0 -0.00062942731)
(0.0025491434 0 -0.00064490812)
(0.0025330585 0 -0.00065804959)
(0.0025120076 0 -0.00066647594)
(0.0024847188 0 -0.00066675858)
(0.002449767 0 -0.00065391679)
(0.0024056459 0 -0.00062111109)
(0.0023508911 0 -0.00055947983)
(0.0022842586 0 -0.00045811133)
(0.0022049497 0 -0.0003042294)
(0.0021128095 0 -8.4262174e-05)
(0.0020084319 0 0.00021261396)
(0.0018932167 0 0.00059297637)
(0.0017692253 0 0.0010589162)
(0.0016388705 0 0.0016057303)
(0.0015046919 0 0.0022210418)
(0.0013692215 0 0.0028853588)
(0.0012349068 0 0.0035741546)
(0.0011040434 0 0.0042599431)
(0.00097870768 0 0.004915731)
(0.00086062192 0 0.0055178427)
(0.00075104202 0 0.0060466814)
(0.00065073771 0 0.0064882837)
(0.00055999044 0 0.0068334268)
(0.00047868223 0 0.0070759364)
(0.00040643094 0 0.0072119228)
(0.0003426331 0 0.0072377572)
(0.00028652685 0 0.0071478287)
(0.00023733575 0 0.006934408)
(0.0001942736 0 0.0065861962)
(0.00015646472 0 0.0060865537)
(0.00012288231 0 0.0054112944)
(9.2268129e-05 0 0.004525144)
(6.2985815e-05 0 0.0033742802)
(3.2813789e-05 0 0.0018756276)
(0 0 0)
(0.0025913571 0 -0.00081811977)
(0.0025909945 0 -0.00081786791)
(0.0025908935 0 -0.00082097536)
(0.0025907314 0 -0.00082464857)
(0.0025904847 0 -0.00082898996)
(0.0025901201 0 -0.00083410879)
(0.0025895925 0 -0.00084012628)
(0.0025888403 0 -0.00084717433)
(0.00258778 0 -0.00085539213)
(0.002586299 0 -0.00086492012)
(0.0025842467 0 -0.00087588997)
(0.0025814222 0 -0.00088840835)
(0.0025775597 0 -0.00090253183)
(0.0025723104 0 -0.0009182295)
(0.0025652266 0 -0.00093532929)
(0.0025557538 0 -0.00095317775)
(0.0025431957 0 -0.00097054074)
(0.0025266619 0 -0.00098577424)
(0.0025050612 0 -0.0009964847)
(0.0024771198 0 -0.0009990948)
(0.0024414191 0 -0.00098849328)
(0.0023964776 0 -0.00095761615)
(0.0023408788 0 -0.00089727528)
(0.0022734562 0 -0.00079624533)
(0.0021935192 0 -0.00064169416)
(0.0021010176 0 -0.00042000203)
(0.0019966519 0 -0.00011967547)
(0.0018819123 0 0.00026592065)
(0.0017588831 0 0.00073836623)
(0.0016299228 0 0.0012929659)
(0.0014974437 0 0.0019173916)
(0.0013638148 0 0.0025922556)
(0.0012313178 0 0.0032932565)
(0.0011021091 0 0.0039931551)
(0.00097816959 0 0.0046647941)
(0.00086117123 0 0.0052841889)
(0.00075236846 0 0.0058314926)
(0.00065256271 0 0.0062922006)
(0.00056208249 0 0.0066567094)
(0.0004808642 0 0.006918486)
(0.00040857477 0 0.0070731424)
(0.00034465297 0 0.007116849)
(0.00028837351 0 0.0070439276)
(0.00023897999 0 0.0068465749)
(0.00019569731 0 0.0065134241)
(0.0001576598 0 0.0060278604)
(0.00012384644 0 0.0053656801)
(9.3000463e-05 0 0.0044915486)
(6.3484227e-05 0 0.0033517358)
(3.3067679e-05 0 0.0018638328)
(0 0 0)
(0.0025860448 0 -0.0011229104)
(0.0025856812 0 -0.0011228004)
(0.0025855603 0 -0.001126145)
(0.0025853736 0 -0.0011301005)
(0.0025850961 0 -0.0011347776)
(0.0025846934 0 -0.0011402951)
(0.0025841183 0 -0.0011467857)
(0.0025833068 0 -0.0011543943)
(0.0025821723 0 -0.0011632754)
(0.0025805984 0 -0.001173587)
(0.0025784294 0 -0.0011854806)
(0.0025754582 0 -0.0011990854)
(0.0025714112 0 -0.0012144834)
(0.0025659301 0 -0.0012316718)
(0.0025585664 0 -0.0012504132)
(0.0025487656 0 -0.0012699843)
(0.0025358095 0 -0.001289248)
(0.0025187841 0 -0.0013065919)
(0.0024965875 0 -0.0013195356)
(0.0024679413 0 -0.0013244206)
(0.0024314366 0 -0.0013159954)
(0.0023856231 0 -0.0012869154)
(0.0023291368 0 -0.0012276507)
(0.002260893 0 -0.001126695)
(0.002180315 0 -0.00097097323)
(0.0020874572 0 -0.0007472058)
(0.0019831458 0 -0.00044329623)
(0.0018689565 0 -5.2268067e-05)
(0.0017469756 0 0.00042670697)
(0.00161951 0 0.00098894232)
(0.0014888366 0 0.0016221337)
(0.0013571638 0 0.0023071747)
(0.0012266026 0 0.0030198644)
(0.0010991639 0 0.0037331503)
(0.00097673281 0 0.0044198083)
(0.00086093028 0 0.0050554074)
(0.00075301128 0 0.0056200876)
(0.00065380529 0 0.0060987923)
(0.00056368636 0 0.0064815829)
(0.00048264195 0 0.0067618077)
(0.00041038704 0 0.0069345595)
(0.00034640368 0 0.0069956787)
(0.00029000365 0 0.0069393947)
(0.00024045223 0 0.0067578224)
(0.00019698696 0 0.00643952)
(0.00015875317 0 0.0059678968)
(0.00012473631 0 0.0053187427)
(9.3681791e-05 0 0.0044566914)
(6.3951234e-05 0 0.0033281505)
(3.3307272e-05 0 0.0018514399)
(0 0 0)
(0.0025795035 0 -0.0014211169)
(0.0025791409 0 -0.0014211485)
(0.0025789976 0 -0.0014247304)
(0.0025787833 0 -0.0014289682)
(0.0025784716 0 -0.0014339809)
(0.0025780265 0 -0.0014398969)
(0.0025773986 0 -0.0014468602)
(0.0025765213 0 -0.0014550288)
(0.0025753047 0 -0.0014645723)
(0.0025736282 0 -0.0014756661)
(0.0025713306 0 -0.0014884816)
(0.0025681981 0 -0.0015031703)
(0.0025639482 0 -0.0015198386)
(0.0025582172 0 -0.0015385123)
(0.0025505576 0 -0.0015588389)
(0.0025404038 0 -0.0015800935)
(0.0025270133 0 -0.0016012489)
(0.0025094545 0 -0.0016206536)
(0.0024866137 0 -0.0016357767)
(0.002457208 0 -0.0016428865)
(0.0024198431 0 -0.0016365881)
(0.002373108 0 -0.0016091675)
(0.0023156942 0 -0.0015507291)
(0.0022466021 0 -0.0014495478)
(0.0021653718 0 -0.0012922777)
(0.0020721783 0 -0.001065905)
(0.0019679757 0 -0.00075809946)
(0.0018544078 0 -0.00036159395)
(0.0017335634 0 0.00012393859)
(0.0016076929 0 0.00069367133)
(0.0014789394 0 0.0013355243)
(0.0013493431 0 0.0020306809)
(0.0012208239 0 0.0027546264)
(0.0010952493 0 0.0034802988)
(0.00097442121 0 0.0041807795)
(0.0008599146 0 0.0048314981)
(0.00075297976 0 0.0054124869)
(0.00065446965 0 0.0059082817)
(0.00056480212 0 0.0063083878)
(0.00048401347 0 0.0066060885)
(0.000411865 0 0.00679634)
(0.00034788182 0 0.0068743911)
(0.00029141367 0 0.0068343542)
(0.00024174898 0 0.0066682548)
(0.00019813932 0 0.0063645685)
(0.00015974202 0 0.00590673)
(0.00012554959 0 0.0052705339)
(9.4310289e-05 0 0.0044206097)
(6.4385602e-05 0 0.0033035494)
(3.3531941e-05 0 0.001838461)
(0 0 0)
(0.002571778 0 -0.0017128758)
(0.0025714098 0 -0.0017130479)
(0.0025712417 0 -0.0017168671)
(0.0025709967 0 -0.0017213872)
(0.0025706471 0 -0.0017267353)
(0.0025701549 0 -0.0017330496)
(0.0025694688 0 -0.0017404853)
(0.002568519 0 -0.0017492134)
(0.0025672122 0 -0.0017594187)
(0.0025654231 0 -0.0017712939)
(0.0025629846 0 -0.0017850303)
(0.0025596755 0 -0.0018008018)
(0.0025552044 0 -0.0018187415)
(0.0025492062 0 -0.001838838)
(0.0025412335 0 -0.0018607003)
(0.0025306992 0 -0.0018836443)
(0.0025168368 0 -0.001906666)
(0.0024987011 0 -0.0019280906)
(0.002475165 0 -0.0019453404)
(0.002444942 0 -0.0019546278)
(0.0024066674 0 -0.0019502333)
(0.0023589739 0 -0.0019241052)
(0.0023005996 0 -0.0018661751)
(0.0022306374 0 -0.0017644572)
(0.0021487459 0 -0.0016054385)
(0.0020552447 0 -0.0013759287)
(0.0019512027 0 -0.0010639017)
(0.0018383219 0 -0.00066205666)
(0.0017187093 0 -0.00016994726)
(0.0015945511 0 0.00040742282)
(0.0014678469 0 0.0010581877)
(0.0013404263 0 0.0017631363)
(0.0012140244 0 0.0024974871)
(0.001090394 0 0.003234485)
(0.0009712563 0 0.0039475831)
(0.00085814045 0 0.0046123553)
(0.00075228509 0 0.0052086267)
(0.00065456253 0 0.005720646)
(0.00056543181 0 0.0061373013)
(0.00048497806 0 0.0064516152)
(0.00041300676 0 0.0066586443)
(0.00034908455 0 0.0067531274)
(0.0002926004 0 0.0067289281)
(0.00024286705 0 0.0065779751)
(0.00019915138 0 0.0062886539)
(0.00016062364 0 0.0058444272)
(0.00012628398 0 0.0052211056)
(9.4884179e-05 0 0.0043833425)
(6.478609e-05 0 0.0032779584)
(3.3741004e-05 0 0.0018249066)
(0 0 0)
(0.0025628913 0 -0.0019983192)
(0.0025625213 0 -0.0019986315)
(0.0025623258 0 -0.002002688)
(0.0025620471 0 -0.0020074903)
(0.0025616559 0 -0.0020131737)
(0.0025611123 0 -0.0020198861)
(0.0025603623 0 -0.0020277938)
(0.0025593334 0 -0.002037081)
(0.0025579281 0 -0.002047947)
(0.0025560161 0 -0.0020606018)
(0.002553424 0 -0.0020752561)
(0.0025499224 0 -0.0020921063)
(0.0025452136 0 -0.0021113157)
(0.0025389336 0 -0.0021327885)
(0.0025306256 0 -0.0021561373)
(0.0025196789 0 -0.0021807616)
(0.0025053074 0 -0.0022056259)
(0.0024865497 0 -0.0022290293)
(0.0024622654 0 -0.0022483387)
(0.0024311776 0 -0.0022596244)
(0.0023919622 0 -0.0022567016)
(0.0023432764 0 -0.0022313782)
(0.0022839042 0 -0.002173602)
(0.0022130495 0 -0.0020710171)
(0.0021304938 0 -0.001910072)
(0.0020367078 0 -0.0016772873)
(0.0019328714 0 -0.0013609105)
(0.001820756 0 -0.00095368263)
(0.0017025017 0 -0.00045465931)
(0.0015802 0 0.00013089385)
(0.0014556472 0 0.00079049674)
(0.0013304608 0 0.0015043976)
(0.0012062399 0 0.0022481856)
(0.0010846302 0 0.0029955658)
(0.00096726577 0 0.0037202824)
(0.00085562797 0 0.0043980822)
(0.00075094075 0 0.0050086385)
(0.00065409226 0 0.0055359463)
(0.00056558013 0 0.0059684647)
(0.00048553669 0 0.00629867)
(0.00041381081 0 0.0065216268)
(0.00035000981 0 0.0066320239)
(0.00029356123 0 0.0066232354)
(0.00024380363 0 0.0064870849)
(0.00020002036 0 0.00621186)
(0.00016139547 0 0.005781056)
(0.00012693728 0 0.0051705105)
(9.5401666e-05 0 0.0043449284)
(6.5151463e-05 0 0.0032514043)
(3.3933788e-05 0 0.0018107884)
(0 0 0)
(0.0025528862 0 -0.0022775779)
(0.0025525109 0 -0.0022780298)
(0.0025522855 0 -0.0022823242)
(0.0025519698 0 -0.0022874092)
(0.002551533 0 -0.0022934282)
(0.0025509332 0 -0.0023005388)
(0.0025501136 0 -0.0023089181)
(0.0025489984 0 -0.002318763)
(0.0025474858 0 -0.0023302875)
(0.0025454401 0 -0.0023437176)
(0.0025426813 0 -0.0023592818)
(0.0025389713 0 -0.0023771936)
(0.0025340089 0 -0.0023976316)
(0.0025274307 0 -0.0024204647)
(0.0025187632 0 -0.0024453038)
(0.002507371 0 -0.0024715853)
(0.002492451 0 -0.0024982606)
(0.002473025 0 -0.0025235999)
(0.0024479423 0 -0.002544924)
(0.0024159558 0 -0.0025578775)
(0.0023757657 0 -0.0025560547)
(0.0023260353 0 -0.0025313423)
(0.0022656226 0 -0.0024734378)
(0.0021938565 0 -0.0023696333)
(0.0021106548 0 -0.0022061843)
(0.0020166222 0 -0.0019697834)
(0.0019130499 0 -0.001648964)
(0.0018018158 0 -0.0012359895)
(0.0016850746 0 -0.00072941946)
(0.0015647415 0 -0.00013551576)
(0.0014423906 0 0.00053222793)
(0.0013194897 0 0.0012542503)
(0.0011975141 0 0.0020066705)
(0.0010779942 0 0.0027635391)
(0.00096247834 0 0.0034989206)
(0.00085239853 0 0.0041887633)
(0.0007489615 0 0.004812637)
(0.00065306863 0 0.0053543157)
(0.00056525255 0 0.0058019417)
(0.0004856911 0 0.0061473891)
(0.0004142768 0 0.0063855356)
(0.00035065614 0 0.0065112132)
(0.00029429398 0 0.0065173924)
(0.00024455624 0 0.0063956843)
(0.00020074369 0 0.0061342701)
(0.00016205508 0 0.005716684)
(0.00012750732 0 0.0051188017)
(9.5861019e-05 0 0.0043054081)
(6.5480461e-05 0 0.0032239142)
(3.4109622e-05 0 0.0017961194)
(0 0 0)
(0.0025417965 0 -0.0025507786)
(0.0025414117 0 -0.0025513695)
(0.0025411535 0 -0.0025559016)
(0.0025407976 0 -0.0025612692)
(0.0025403111 0 -0.002567624)
(0.00253965 0 -0.0025751328)
(0.0025387547 0 -0.0025839842)
(0.0025375456 0 -0.0025943877)
(0.0025359165 0 -0.0026065723)
(0.002533726 0 -0.0026207814)
(0.0025307866 0 -0.0026372635)
(0.0025268517 0 -0.0026562566)
(0.0025216192 0 -0.0026778866)
(0.0025147242 0 -0.0027020226)
(0.0025056713 0 -0.0027283337)
(0.0024938009 0 -0.0027562451)
(0.002478292 0 -0.0027846948)
(0.0024581491 0 -0.002811916)
(0.0024322266 0 -0.0028351231)
(0.002399309 0 -0.0028495007)
(0.0023580904 0 -0.0028486178)
(0.0023072553 0 -0.0028244081)
(0.0022457656 0 -0.0027661436)
(0.0021730818 0 -0.0026607626)
(0.0020892655 0 -0.0024941941)
(0.0019950481 0 -0.0022534363)
(0.0018918421 0 -0.0019275253)
(0.0017816421 0 -0.0015081178)
(0.0016665389 0 -0.00099377722)
(0.0015482271 0 -0.00039208973)
(0.001428122 0 0.0002830849)
(0.0013075633 0 0.0010125751)
(0.0011878915 0 0.0017728715)
(0.0010705234 0 0.0025383833)
(0.00095692394 0 0.0032835214)
(0.00084847476 0 0.003984464)
(0.00074636351 0 0.0046207194)
(0.00065150219 0 0.005175873)
(0.00056445552 0 0.0056377791)
(0.00048544499 0 0.0059978884)
(0.00041440569 0 0.0062506175)
(0.00035102222 0 0.0063908228)
(0.00029479697 0 0.0064115119)
(0.00024512274 0 0.0063038715)
(0.00020131905 0 0.0060559667)
(0.00016260018 0 0.0056513787)
(0.00012799205 0 0.0050660332)
(9.6260488e-05 0 0.0042648218)
(6.5771831e-05 0 0.003195516)
(3.4267794e-05 0 0.0017809116)
(0 0 0)
(0.0025296441 0 -0.0028180461)
(0.0025292526 0 -0.0028187751)
(0.0025289588 0 -0.0028235451)
(0.0025285592 0 -0.0028291954)
(0.0025280189 0 -0.002835886)
(0.0025272914 0 -0.0028437932)
(0.0025263141 0 -0.0028531167)
(0.0025250036 0 -0.002864079)
(0.0025232485 0 -0.0028769241)
(0.0025209012 0 -0.002891913)
(0.0025177662 0 -0.0029093153)
(0.002513591 0 -0.0029294014)
(0.0025080764 0 -0.0029522122)
(0.0025008459 0 -0.0029776099)
(0.0024913783 0 -0.0030053565)
(0.0024789941 0 -0.0030348649)
(0.0024628539 0 -0.0030650536)
(0.0024419467 0 -0.0030941282)
(0.0024151509 0 -0.0031189367)
(0.0023812609 0 -0.0031345321)
(0.0023389502 0 -0.0031345717)
(0.0022869575 0 -0.0031106672)
(0.0022243728 0 -0.0030516089)
(0.0021507866 0 -0.002944105)
(0.0020663799 0 -0.0027741411)
(0.0019720353 0 -0.0025286451)
(0.001869338 0 -0.0021966187)
(0.0017603307 0 -0.0017699526)
(0.0016469449 0 -0.0012480655)
(0.0015307001 0 -0.00063919383)
(0.0014128955 0 4.2887823e-05)
(0.0012947325 0 0.00077923718)
(0.0011774172 0 0.0015467013)
(0.0010622562 0 0.0023200577)
(0.00095063345 0 0.0030740889)
(0.00084388053 0 0.0037852304)
(0.00074316404 0 0.0044329656)
(0.00064940473 0 0.0050007218)
(0.0005631968 0 0.0054760938)
(0.00048480278 0 0.0058502186)
(0.00041419844 0 0.0061169089)
(0.00035110732 0 0.0062709726)
(0.00029506902 0 0.0063057031)
(0.00024550135 0 0.0062117429)
(0.00020174433 0 0.0059770315)
(0.00016302862 0 0.0055852079)
(0.00012838945 0 0.0050122591)
(9.6598368e-05 0 0.0042232108)
(6.6024307e-05 0 0.0031662382)
(3.4407621e-05 0 0.0017651793)
(0 0 0)
(0.0025164668 0 -0.0030795015)
(0.0025160632 0 -0.0030803681)
(0.002515731 0 -0.0030853761)
(0.0025152842 0 -0.003091309)
(0.0025146859 0 -0.0030983349)
(0.002513887 0 -0.0031066396)
(0.0025128215 0 -0.0031164335)
(0.0025114017 0 -0.0031279514)
(0.0025095113 0 -0.0031414512)
(0.0025069958 0 -0.0031572084)
(0.0025036514 0 -0.0031755066)
(0.0024992231 0 -0.0031966288)
(0.0024934124 0 -0.0032206025)
(0.0024858231 0 -0.0032472881)
(0.0024759091 0 -0.0032764681)
(0.0024629739 0 -0.0033075528)
(0.0024461573 0 -0.0033394393)
(0.002424447 0 -0.003370266)
(0.0023967464 0 -0.0033964754)
(0.002361828 0 -0.0034131336)
(0.0023183591 0 -0.0034139964)
(0.0022651806 0 -0.0033900436)
(0.0022015109 0 -0.0033295394)
(0.0021270397 0 -0.0032192969)
(0.0020420643 0 -0.0030456551)
(0.0019476686 0 -0.0027951858)
(0.0018456331 0 -0.0024562732)
(0.0017379434 0 -0.002021878)
(0.0016263358 0 -0.0014927245)
(0.0015122152 0 -0.00087706012)
(0.0013967654 0 -0.00018855203)
(0.0012810477 0 0.00055409069)
(0.001166136 0 0.0013280594)
(0.0010532308 0 0.0021085073)
(0.00094363822 0 0.002870612)
(0.00083864032 0 0.0035910929)
(0.00073938131 0 0.0042494398)
(0.00064678899 0 0.0048289513)
(0.00056148464 0 0.005316991)
(0.00048376901 0 0.0057044176)
(0.00041365737 0 0.0059844982)
(0.00035091244 0 0.0061518603)
(0.0002951094 0 0.0062000718)
(0.00024569058 0 0.0061193925)
(0.00020201766 0 0.005897545)
(0.00016333839 0 0.005518239)
(0.0001286976 0 0.0049575343)
(9.6872999e-05 0 0.004180618)
(6.6236624e-05 0 0.00313611)
(3.4528354e-05 0 0.0017489347)
(0 0 0)
(0.0025022865 0 -0.0033352635)
(0.0025018726 0 -0.0033362675)
(0.0025014991 0 -0.0033415137)
(0.0025010016 0 -0.0033477296)
(0.002500341 0 -0.0033550912)
(0.0024994653 0 -0.003363794)
(0.0024983051 0 -0.0033740592)
(0.0024967682 0 -0.0033861346)
(0.0024947326 0 -0.0034002926)
(0.0024920368 0 -0.0034168263)
(0.0024884682 0 -0.0034360395)
(0.0024837722 0 -0.0034581643)
(0.0024776475 0 -0.003483247)
(0.0024696753 0 -0.003511205)
(0.0024592854 0 -0.0035417972)
(0.0024457615 0 -0.0035744301)
(0.002428225 0 -0.0036079906)
(0.0024056806 0 -0.0036403263)
(0.0023770347 0 -0.003667772)
(0.0023410225 0 -0.003685464)
(0.0022963515 0 -0.0036868439)
(0.0022419836 0 -0.0036623016)
(0.0021772248 0 -0.003599932)
(0.0021018648 0 -0.0034866294)
(0.0020163737 0 -0.0033087487)
(0.0019220629 0 -0.0030525226)
(0.0018208308 0 -0.0027062335)
(0.0017145357 0 -0.0022641925)
(0.0016047643 0 -0.0017280305)
(0.0014928275 0 -0.0011059268)
(0.0013797858 0 -0.00041143327)
(0.0012665595 0 0.00033697814)
(0.0011540932 0 0.0011168311)
(0.0010434859 0 0.0019036608)
(0.00093597021 0 0.0026730623)
(0.00083277939 0 0.0034020651)
(0.00073503442 0 0.0040701901)
(0.00064366857 0 0.0046606368)
(0.00055932826 0 0.0051605634)
(0.00048234974 0 0.0055605889)
(0.00041278657 0 0.0058535631)
(0.00035043904 0 0.0060336816)
(0.00029491741 0 0.0060947195)
(0.00024568933 0 0.0060269121)
(0.00020213738 0 0.0058175866)
(0.00016352763 0 0.0054505392)
(0.00012891465 0 0.0049019138)
(9.7082725e-05 0 0.004137086)
(6.6407533e-05 0 0.003105162)
(3.4629307e-05 0 0.0017321938)
(0 0 0)