/*--------------------------------*- C++ -*----------------------------------*\
  =========                 |
  \\      /  F ield         | OpenFOAM: The Open Source CFD Toolbox
   \\    /   O peration     | Website:  https://openfoam.org
    \\  /    A nd           | Version:  8
     \\/     M anipulation  |
\*---------------------------------------------------------------------------*/
FoamFile
{
    version     2.0;
    format      ascii;
    class       volScalarField;
    location    "0.10999";
    object      rho;
}
// * * * * * * * * * * * * * * * * * * * * * * * * * * * * * * * * * * * * * //

dimensions      [1 -3 0 0 0 0 0];

internalField   nonuniform List<scalar> 
20000
(
0.75027199
0.75158802
0.7545481
0.76026738
0.77106708
0.79172869
0.81193923
0.81651893
0.81465859
0.81701046
0.81654288
0.81892369
0.81959304
0.82244729
0.82422074
0.82793881
0.83118342
0.83633819
0.8415607
0.84886428
0.85708743
0.86774199
0.88023764
0.89572478
0.91389979
0.93529858
0.95934235
0.98544679
1.0121659
1.0380862
1.0618503
1.0827177
1.1003919
1.1150046
1.1267833
1.1361501
1.1434107
1.1490487
1.1533311
1.1566418
1.1591815
1.1612642
1.1628912
1.1643476
1.1659827
1.1680411
1.1692052
1.1695174
1.169298
1.1697157
0.7495929
0.75109262
0.75420634
0.76020534
0.77146757
0.7932892
0.81181254
0.81593653
0.81403493
0.81649005
0.81604341
0.81853045
0.81919916
0.82209342
0.8238908
0.82767411
0.83095967
0.83614655
0.84144388
0.84883498
0.85716799
0.86807186
0.88086698
0.89662619
0.91506099
0.93664109
0.960799
0.98689826
1.0135307
1.0393037
1.0629137
1.083617
1.1011291
1.11559
1.1272412
1.1364991
1.1436656
1.1492325
1.1534652
1.1567453
1.1592754
1.1613496
1.1629525
1.1644086
1.1662289
1.1681346
1.1692057
1.169568
1.1692851
1.1697247
0.74929211
0.75090071
0.75417952
0.76044364
0.77218252
0.79520075
0.81199625
0.81580436
0.81390476
0.81642519
0.81595154
0.81847767
0.81912715
0.82206026
0.82387099
0.82769215
0.83102097
0.83636721
0.84189632
0.84958263
0.85823123
0.86936845
0.88239384
0.89837636
0.91702385
0.93876662
0.96300539
0.9890562
1.0155166
1.0410258
1.0643435
1.084764
1.1020308
1.1162801
1.1277531
1.1368657
1.1439238
1.1494118
1.1535897
1.1568364
1.1593535
1.1614192
1.1630012
1.1644681
1.1664858
1.1683535
1.1692728
1.1695293
1.1693131
1.1696638
0.74929563
0.75102325
0.75446075
0.76099071
0.77321353
0.79734296
0.81226857
0.81578566
0.81391317
0.81649319
0.81604765
0.81864622
0.81930255
0.82234564
0.82426999
0.82827973
0.83179239
0.83734131
0.84306138
0.85096074
0.85984754
0.87126112
0.88459182
0.90087512
0.91981363
0.94177999
0.96613208
0.99212163
1.0183503
1.0434981
1.0664056
1.0864205
1.1033238
1.1172668
1.1284909
1.1374051
1.1443091
1.149684
1.1537823
1.1569787
1.1594718
1.1615183
1.1630681
1.1645626
1.1667632
1.1684729
1.1693076
1.169535
1.169316
1.1696262
0.74947047
0.75135397
0.75496584
0.76179575
0.77457214
0.79975944
0.81280833
0.81621207
0.81436955
0.81705252
0.81661317
0.81934731
0.82000893
0.82319703
0.82522674
0.82938207
0.83303676
0.83877306
0.84470429
0.85285146
0.86201826
0.87372271
0.88737008
0.90397428
0.92322847
0.94544354
0.96991622
0.99582772
1.0217746
1.0464848
1.0688876
1.0884036
1.1048633
1.1184351
1.1293578
1.1380341
1.1447569
1.1499994
1.1540042
1.1571409
1.1596028
1.1616241
1.1631436
1.164694
1.1670218
1.1686073
1.1693508
1.1695313
1.1693226
1.1695736
0.750368
0.75228644
0.75602007
0.76313708
0.77649719
0.80257545
0.81373194
0.81702913
0.8151752
0.81787128
0.81750518
0.82027058
0.82108971
0.8244086
0.8265471
0.83086169
0.8346746
0.84060474
0.84674528
0.85513404
0.86458405
0.87660904
0.89062087
0.90759783
0.92721977
0.94972311
0.97433311
1.0001528
1.0257748
1.0499816
1.0718001
1.0907343
1.1066727
1.1198089
1.1303789
1.1387777
1.1452879
1.150375
1.1542693
1.157335
1.1597568
1.1617444
1.1632375
1.1648846
1.1672558
1.1687155
1.1693902
1.1695452
1.1693221
1.169519
0.75133177
0.75334213
0.75724047
0.76468642
0.77873941
0.80548961
0.8148568
0.81811073
0.81628901
0.81908679
0.81874813
0.82163275
0.82250804
0.82593157
0.82817129
0.83263268
0.8365978
0.84272184
0.84908667
0.85774107
0.86750611
0.87988064
0.89428781
0.91167259
0.9316974
0.95451454
0.97926677
1.0049761
1.030234
1.0538828
1.075053
1.0933403
1.1086982
1.1213484
1.1315239
1.1396121
1.1458848
1.1507979
1.1545683
1.1575536
1.1599275
1.1618734
1.1633499
1.1651376
1.1674593
1.1688178
1.1694301
1.1695668
1.1693073
1.1694614
0.75265082
0.75474095
0.75876017
0.76653019
0.78135877
0.80855488
0.8161598
0.81945688
0.81761904
0.82051026
0.82018798
0.82315588
0.82412208
0.82767035
0.83001851
0.83463502
0.8387636
0.84509373
0.851699
0.86063605
0.8707396
0.88349368
0.89833416
0.91616641
0.93663039
0.95978241
0.98467512
1.010249
1.0351012
1.0581412
1.0786078
1.0961932
1.1109197
1.1230405
1.1327853
1.1405336
1.1465456
1.1512675
1.1549012
1.1577975
1.1601153
1.1620112
1.1634813
1.1654294
1.1676521
1.1689129
1.1694665
1.1695827
1.1692854
1.1694053
0.75408739
0.75628753
0.7604339
0.76854094
0.78427694
0.81168318
0.81763933
0.8209731
0.81914034
0.82212773
0.82183125
0.82491741
0.82594323
0.82960818
0.8320669
0.83684065
0.84114145
0.84768885
0.85455268
0.86379416
0.87426356
0.88742601
0.90273144
0.9210441
0.94197408
0.96547159
0.99049211
1.015899
1.0403026
1.0626877
1.082405
1.0992452
1.1133014
1.1248593
1.1341444
1.1415286
1.147261
1.1517772
1.1552639
1.1580637
1.1603176
1.1621552
1.1636279
1.1657394
1.1678457
1.1690105
1.1695011
1.1695925
1.1692602
1.1693518
0.75579059
0.75805394
0.76232107
0.77075585
0.78752173
0.81487518
0.81928834
0.82266555
0.82082735
0.82390254
0.82363928
0.82681994
0.82792188
0.83171191
0.83429018
0.83923062
0.84371696
0.85049666
0.85763944
0.86720611
0.87806695
0.89166616
0.90746937
0.92629431
0.94771274
0.97155736
0.99668278
1.0218822
1.0457902
1.0674752
1.0864025
1.1024616
1.1158165
1.126785
1.1355872
1.1425875
1.1480244
1.1523229
1.1556535
1.1583504
1.160533
1.1623042
1.1637858
1.1660524
1.1680436
1.1691122
1.1695354
1.1695976
1.1692333
1.1693026
0.75756194
0.75992374
0.76431819
0.77308618
0.79101086
0.81803869
0.82103122
0.82447434
0.82264789
0.82581394
0.82559852
0.828878
0.83005797
0.8339757
0.8366812
0.84179674
0.8464829
0.85350941
0.86094962
0.87086154
0.88213933
0.89620277
0.91253395
0.93189864
0.95382035
0.97800335
1.0032004
1.0281446
1.0515078
1.07245
1.0905531
1.1058036
1.1184349
1.1287953
1.1370975
1.1436986
1.1488274
1.1528987
1.1560665
1.1586554
1.1607594
1.162457
1.1639519
1.166357
1.1682409
1.1692206
1.1695755
1.1695997
1.1692045
1.1692581
0.75946119
0.76193551
0.76646712
0.77555951
0.79475549
0.82119863
0.82290865
0.82642217
0.82461357
0.82786238
0.82769316
0.83107225
0.83233712
0.83638912
0.83923233
0.84453408
0.84943495
0.85672327
0.86448099
0.87475919
0.88648007
0.90103603
0.91792553
0.93785509
0.96028822
0.9847907
1.0100155
1.034649
1.0574143
1.0775715
1.0948196
1.1092397
1.1211313
1.130871
1.1386609
1.1448513
1.1496627
1.1534996
1.1564995
1.1589762
1.1609948
1.1626139
1.1641276
1.1666447
1.1684301
1.169336
1.1696298
1.1695871
1.169173
1.1692188
0.76152664
0.76410288
0.76878597
0.77819732
0.79874922
0.82435132
0.82490355
0.82848748
0.82670367
0.83003179
0.82991661
0.83339975
0.834757
0.83895054
0.8419421
0.84744128
0.8525716
0.86013619
0.86822967
0.87889481
0.89108506
0.90616158
0.92363806
0.94415325
0.9670974
0.99188977
1.0170887
1.0413501
1.0634629
1.0827953
1.099163
1.1127372
1.12388
1.1329922
1.1402625
1.1460348
1.1505222
1.1541202
1.1569489
1.1593105
1.1612373
1.1627768
1.16432
1.1669114
1.1686034
1.1694459
1.1697124
1.1695532
1.16914
1.1691842
0.76370655
0.76638513
0.77124049
0.78096668
0.80292515
0.82742691
0.82700136
0.83066073
0.82890832
0.83232092
0.83226634
0.83585779
0.83731581
0.84165837
0.84481005
0.85051705
0.85589132
0.86374626
0.87219624
0.88327126
0.89595882
0.91158513
0.92967687
0.95079474
0.974241
0.99928278
1.0243925
1.0482143
1.0696182
1.0880872
1.103552
1.1162693
1.1266591
1.135142
1.1418894
1.1472389
1.1513988
1.1547554
1.1574115
1.1596558
1.1614855
1.1629486
1.1645405
1.167155
1.1687603
1.1695489
1.1697919
1.1695139
1.1691075
1.1691535
0.76595439
0.76876555
0.77382827
0.78389403
0.80727346
0.83045513
0.82921487
0.83295093
0.83123358
0.83473067
0.83474231
0.83844676
0.84001345
0.84451351
0.84783596
0.85376125
0.85939303
0.86755302
0.87638045
0.88788887
0.9011022
0.91730719
0.93604057
0.95777197
0.98170164
1.006941
1.0318898
1.0552005
1.0758397
1.0934099
1.1079542
1.1198089
1.1294469
1.1373035
1.1435283
1.1484538
1.1522851
1.1554
1.1578837
1.1600095
1.1617386
1.1631329
1.1647982
1.167376
1.1689013
1.1696371
1.1698658
1.1694693
1.1690765
1.169126
0.76832752
0.7712897
0.77658897
0.78702176
0.81176989
0.83343679
0.83153854
0.83535072
0.83367358
0.83725763
0.83734285
0.84116626
0.84285092
0.84751581
0.8510195
0.85717193
0.86307625
0.87155796
0.88078657
0.8927546
0.90652356
0.92333723
0.94273675
0.96508681
0.98947032
1.0148447
1.0395526
1.0622773
1.082096
1.0987344
1.1123438
1.1233343
1.1322257
1.1394624
1.145168
1.1496706
1.1531745
1.1560495
1.1583622
1.1603686
1.1619949
1.1633325
1.1650868
1.1675831
1.1690295
1.1697058
1.1699058
1.1694252
1.169048
1.169101
0.77076773
0.77389633
0.77948057
0.79034743
0.81634596
0.83636437
0.83396583
0.8378571
0.83622862
0.83990391
0.84007016
0.8440182
0.84582792
0.85066441
0.85435844
0.86074913
0.86694199
0.87576352
0.88541837
0.89787271
0.91222761
0.929679
0.94976617
0.97273105
0.99752738
1.0229629
1.0473441
1.0694069
1.0883518
1.1040293
1.1166942
1.1268236
1.1349782
1.1416047
1.1467971
1.1508805
1.1540606
1.1566994
1.1588438
1.1607305
1.1622518
1.1635485
1.1653974
1.1677831
1.1691442
1.1697594
1.1699242
1.1693851
1.1690218
1.1690776
0.77332937
0.77663456
0.78254652
0.79393819
0.82098837
0.83927541
0.8365079
0.84047841
0.8389039
0.84267187
0.84292443
0.84700119
0.84894266
0.85395644
0.85785203
0.8644924
0.87099303
0.88017532
0.89028379
0.90325314
0.91822534
0.93634403
0.95713669
0.98070409
1.0058597
1.031272
1.0552348
1.0765593
1.0945789
1.1092701
1.1209847
1.1302598
1.1376905
1.1437189
1.1484064
1.1520763
1.1549378
1.1573456
1.1593255
1.1610926
1.1625085
1.1637804
1.1657278
1.1679774
1.1692438
1.1698029
1.1699315
1.1693489
1.1689977
1.1690554
0.77596581
0.77945115
0.78573762
0.79778887
0.82562794
0.84218278
0.83915992
0.84320882
0.84169439
0.84555886
0.84590255
0.85011207
0.85219123
0.85739031
0.8615001
0.86840573
0.87523457
0.88479948
0.89538963
0.90890309
0.92452398
0.94333831
0.96484832
0.98899454
1.0144428
1.0397382
1.0631877
1.0836985
1.1007461
1.1144303
1.1251937
1.1336258
1.1403489
1.1457937
1.1499868
1.1532508
1.1558007
1.1579845
1.1598042
1.1614519
1.1627632
1.1640272
1.1660772
1.1681693
1.1693268
1.1698235
1.1699335
1.1693168
1.1689749
1.169034
0.77868875
0.78235603
0.78905805
0.80194102
0.83024178
0.84515694
0.84191877
0.84605497
0.84460251
0.84856279
0.8490005
0.85334651
0.85557228
0.86096693
0.86530697
0.87249348
0.87967304
0.8896445
0.9007463
0.91483447
0.93113681
0.95067445
0.97290722
0.99759633
1.0232578
1.0483341
1.0711726
1.0907963
1.1068285
1.1194898
1.1293051
1.1369079
1.1429419
1.1478208
1.1515315
1.1543985
1.1566449
1.1586128
1.1602774
1.1618061
1.163015
1.1642879
1.1664414
1.1683625
1.1694011
1.1698343
1.1699334
1.1692881
1.1689526
1.1690132
0.78151179
0.78535431
0.79249626
0.80641266
0.83478961
0.84810091
0.84477395
0.84899609
0.8476127
0.85167533
0.85221389
0.85670394
0.85908799
0.86469101
0.8692782
0.87676286
0.88431608
0.89471874
0.90636285
0.9210568
0.93807357
0.95835918
0.98131055
1.0064922
1.0322745
1.0570228
1.0791523
1.0978193
1.1127986
1.1244266
1.1333017
1.1400924
1.1454578
1.1497924
1.1530347
1.1555138
1.1574661
1.1592276
1.1607423
1.162153
1.1632651
1.1645634
1.1668113
1.1685582
1.1694759
1.1698393
1.1699088
1.1692577
1.168929
1.1689929
0.78440629
0.78842155
0.79602525
0.81120791
0.83924282
0.85105603
0.84772748
0.8520451
0.85072605
0.85489752
0.85554442
0.8601896
0.86274463
0.86856947
0.87342036
0.88122018
0.88917203
0.90003274
0.91225153
0.92758427
0.94534954
0.96640439
0.9900599
1.0156692
1.0414678
1.065773
1.0870959
1.1047408
1.1186351
1.1292247
1.1371711
1.1431686
1.1478876
1.1517041
1.154492
1.156592
1.1582616
1.1598264
1.1611969
1.1624909
1.1635158
1.1648599
1.1671705
1.1687506
1.1695527
1.1698419
1.1698671
1.1692204
1.1689035
1.1689728
0.78741547
0.7915933
0.79966717
0.81635415
0.84360647
0.85405818
0.85078667
0.85520219
0.85394863
0.85823041
0.85899903
0.86381008
0.86654945
0.87260797
0.87773967
0.88587342
0.89425041
0.90559711
0.9184235
0.93442924
0.95297597
0.97481499
0.99914608
1.0251026
1.0508013
1.0745446
1.0949658
1.1115296
1.1243149
1.1338672
1.1409
1.1461267
1.1502256
1.1535521
1.1558985
1.1576279
1.1590285
1.1604069
1.1616389
1.1628184
1.1637707
1.1651873
1.167499
1.1689287
1.1696307
1.169853
1.1698067
1.1691768
1.1688765
1.1689526
0.79045205
0.79478892
0.80334851
0.82177145
0.84782896
0.85726705
0.8539377
0.85845575
0.8572848
0.86169378
0.86258567
0.86757299
0.87050634
0.87681144
0.88224236
0.89073084
0.89956207
0.91142448
0.92489353
0.94160847
0.96096933
0.98359929
1.0085631
1.0347702
1.0602429
1.0833027
1.1027305
1.1181609
1.1298211
1.138343
1.1444796
1.1489616
1.1524745
1.1553337
1.1572475
1.1586168
1.1597643
1.1609674
1.1620663
1.1631348
1.164033
1.1655498
1.1677838
1.1690832
1.1696993
1.1698938
1.1697262
1.1691294
1.168849
1.1689321
0.793619
0.79811898
0.80717584
0.82751639
0.8519771
0.86052352
0.85720138
0.86182338
0.86073626
0.8652865
0.86631161
0.87147938
0.87461915
0.88118451
0.88693703
0.89580338
0.90511914
0.91752766
0.93167558
0.94913744
0.96934107
0.9927577
1.0182926
1.0446382
1.0697497
1.0920046
1.1103529
1.1246072
1.1351362
1.1426408
1.147902
1.1516715
1.1546434
1.157043
1.1585295
1.1595552
1.1604657
1.1615065
1.1624774
1.1634392
1.1643032
1.1659291
1.1680324
1.1692181
1.1697589
1.1699184
1.1696412
1.1690822
1.1688216
1.1689109
0.79687737
0.80153658
0.8111146
0.83353554
0.85601658
0.86387995
0.8605693
0.86530127
0.86430999
0.86900339
0.87017238
0.87553329
0.87889244
0.88573563
0.89183362
0.90110236
0.91093445
0.92392163
0.93878757
0.95703564
0.97810674
1.0022923
1.0283188
1.0546749
1.079283
1.1006127
1.1178025
1.1308494
1.1402495
1.1467537
1.1511644
1.1542602
1.1567419
1.1586705
1.1597367
1.1604433
1.1611292
1.1620235
1.1628707
1.1637308
1.1645797
1.1663052
1.1682537
1.1693324
1.1698075
1.1699295
1.1695611
1.1690365
1.1687948
1.1688887
0.80020912
0.80503866
0.81518613
0.83976538
0.85997616
0.86733369
0.86405726
0.86890366
0.86801314
0.87285124
0.87416967
0.87973937
0.88333491
0.89047515
0.89694437
0.90664041
0.91702158
0.93062191
0.94624736
0.9653203
0.98727506
1.0121943
1.0386125
1.0648368
1.0887948
1.1090829
1.1250472
1.1368705
1.1451503
1.1506723
1.1542659
1.1567328
1.1587559
1.1602022
1.1608728
1.1612863
1.1617526
1.1625177
1.163245
1.1640092
1.16486
1.1666693
1.1684503
1.1694217
1.1698401
1.1699354
1.1694827
1.1689941
1.1687684
1.1688653
0.80368273
0.80868148
0.81945197
0.84619012
0.86388943
0.87090005
0.86766188
0.87262937
0.87184605
0.87683908
0.87831204
0.88410331
0.88795826
0.89541508
0.90228147
0.91242978
0.92339558
0.9376476
0.95407683
0.97401226
0.99685646
1.0224553
1.0491458
1.0750832
1.0982419
1.1173795
1.1320687
1.1426665
1.1498321
1.1543878
1.1572078
1.1590945
1.1606586
1.1616311
1.1619416
1.1620906
1.1623398
1.1629882
1.1635997
1.1642747
1.1651436
1.1670184
1.1686246
1.1694893
1.1698556
1.1699379
1.1694136
1.1689546
1.1687422
1.1688404
0.80722567
0.81238803
0.82387382
0.85269275
0.86774966
0.87456511
0.87138103
0.87647941
0.87581741
0.88097624
0.88260741
0.88863994
0.89277265
0.90056734
0.90785625
0.91848405
0.9300734
0.94501917
0.96229738
0.98312784
1.0068517
1.0330538
1.0598765
1.0853617
1.1075737
1.1254672
1.1388562
1.1482343
1.1542837
1.15789
1.1599879
1.1613412
1.1624217
1.162965
1.1629442
1.1628523
1.1629028
1.1634332
1.163935
1.1645308
1.1654342
1.1673504
1.1687806
1.1695423
1.1698629
1.1699386
1.1693513
1.1689172
1.1687157
1.1688138
0.81089489
0.81620878
0.82852706
0.85923226
0.87167299
0.87835601
0.87523136
0.88046602
0.87992887
0.88525693
0.88708064
0.89336306
0.8977894
0.90594051
0.91368071
0.92481871
0.93707574
0.95276127
0.97093384
0.99268512
1.0172613
1.0439673
1.0707635
1.0956237
1.1167484
1.133327
1.1454134
1.1535646
1.158489
1.1611805
1.1626018
1.1634507
1.1640433
1.1642538
1.1638762
1.163542
1.1634554
1.1638506
1.1642518
1.1647851
1.1657413
1.1676627
1.1689227
1.1695878
1.1698668
1.1699236
1.1692945
1.1688809
1.1686884
1.1687855
0.8147075
0.82014344
0.83344063
0.86570157
0.87562416
0.88227879
0.87921678
0.88459453
0.88418865
0.88969766
0.89172502
0.89827798
0.90301828
0.91154385
0.91976929
0.93145339
0.94442638
0.96089912
0.98000867
1.0026944
1.0280735
1.0551584
1.0817522
1.1058115
1.1257244
1.1409481
1.1517349
1.1586166
1.1624392
1.1642656
1.1650463
1.1654109
1.1655687
1.1654697
1.1647347
1.1641785
1.1639884
1.1642397
1.1645513
1.1650421
1.1660784
1.1679483
1.1690531
1.169621
1.1698561
1.1698919
1.1692421
1.1688451
1.1686599
1.1687552
0.81869412
0.82421255
0.83865529
0.87217453
0.87966085
0.88633856
0.88334004
0.88886747
0.88860202
0.89430094
0.8965507
0.9033925
0.90847023
0.91738959
0.92614003
0.93841235
0.95215239
0.96946106
0.9895454
1.0131661
1.0392741
1.0665889
1.0927897
1.1158765
1.1344772
1.1483344
1.1577803
1.1633727
1.1661204
1.1671475
1.1673335
1.1672321
1.1670202
1.1666011
1.1655186
1.1647663
1.164496
1.1646047
1.1648346
1.1653112
1.1664514
1.1681951
1.1691722
1.1696442
1.1698241
1.1698433
1.1691926
1.1688086
1.1686297
1.1687229
0.8228525
0.828409
0.84416902
0.8785898
0.88377673
0.89052852
0.88760219
0.89328996
0.89317819
0.8990795
0.90156876
0.90871161
0.91415292
0.92349544
0.93281744
0.94572347
0.96028241
0.9784739
0.99956296
1.0240985
1.0508344
1.0782045
1.1038132
1.1257687
1.1429902
1.1554741
1.1634989
1.1678028
1.1695285
1.1698414
1.169484
1.1689366
1.1683801
1.1676482
1.1662347
1.1653112
1.1649629
1.1649552
1.1651024
1.1655857
1.1668266
1.1684163
1.1692773
1.1696701
1.1697981
1.1697812
1.1691426
1.1687707
1.168598
1.1686886
0.82718099
0.83275506
0.84998878
0.88492902
0.88800087
0.89486457
0.89202058
0.89787359
0.89792572
0.90404231
0.90679236
0.91424205
0.92008381
0.92988605
0.93983034
0.95341681
0.96884605
0.98796564
1.0100792
1.0354879
1.0627212
1.0899516
1.1147664
1.1354552
1.1512637
1.1623077
1.1688595
1.1718922
1.1727043
1.172379
1.1714802
1.170527
1.1696561
1.1686126
1.1668903
1.1658171
1.1653772
1.1652971
1.1653562
1.1658695
1.16719
1.1686113
1.1693637
1.1696899
1.169788
1.1697035
1.1690894
1.1687319
1.168565
1.1686522
0.83171764
0.83726208
0.85612903
0.89122078
0.89236005
0.89936081
0.89660152
0.90262457
0.90284689
0.90919312
0.91222623
0.92000698
0.92629226
0.93659093
0.94720968
0.96152339
0.97787252
0.99796113
1.0211034
1.0473154
1.0748846
1.1017622
1.1255897
1.1449087
1.1592847
1.1687655
1.1738224
1.1756632
1.1757083
1.1747258
1.1733347
1.17201
1.1708472
1.169497
1.1674889
1.1662805
1.1657514
1.1656208
1.1655992
1.1661496
1.1675306
1.1687824
1.1694357
1.1697084
1.1697846
1.1696217
1.1690364
1.1686929
1.168531
1.168614
0.83650197
0.84196119
0.86258058
0.89742122
0.89684802
0.90401046
0.90133757
0.90754651
0.90795193
0.91454584
0.91789342
0.92603239
0.93280783
0.94364085
0.95498649
0.97007412
0.98739202
1.0084852
1.0326421
1.0595575
1.0872721
1.1135735
1.1362385
1.1541207
1.1669828
1.1748081
1.1783784
1.1792078
1.178499
1.1768996
1.1750508
1.173391
1.1719571
1.1703041
1.1680329
1.1667018
1.166092
1.1659185
1.1658368
1.1664271
1.167843
1.1689324
1.169495
1.1697251
1.1697842
1.169544
1.1689852
1.1686538
1.168496
1.1685739
0.84151121
0.84684686
0.86929587
0.90349457
0.90146152
0.90880581
0.90623315
0.91265012
0.91326381
0.92012588
0.92382321
0.93235029
0.9396592
0.95106701
0.96319204
0.97910015
0.99743351
1.0195574
1.044689
1.0721723
1.0998153
1.1253157
1.1466721
1.1630756
1.1742742
1.1803926
1.182583
1.1825364
1.181077
1.1789014
1.176637
1.1746753
1.1729869
1.1710346
1.1685255
1.1670843
1.1664057
1.166187
1.1660717
1.1667078
1.1681215
1.1690628
1.1695423
1.1697336
1.1697811
1.1694731
1.1689355
1.1686146
1.1684602
1.1685323
0.84672833
0.85193908
0.87624701
0.90945447
0.90622222
0.91376996
0.91132162
0.91795716
0.91881163
0.92596606
0.93004626
0.93898974
0.9468769
0.95890017
0.97185739
0.98863325
1.0080266
1.0311946
1.0572322
1.0851119
1.1124465
1.1369319
1.1568681
1.1717112
1.1810994
1.1855057
1.1865326
1.1856196
1.1834486
1.180742
1.1781006
1.1758685
1.173939
1.1716888
1.1689711
1.1674293
1.1666913
1.1664379
1.1663043
1.1670002
1.1683579
1.1691728
1.1695805
1.1697382
1.1697756
1.1694008
1.1688889
1.1685757
1.1684238
1.1684894
0.85217766
0.85729028
0.88340082
0.91533948
0.91116439
0.91893927
0.91663477
0.92350622
0.92462821
0.93209397
0.93658874
0.94597724
0.95449215
0.96717256
0.9810139
0.99870662
1.0191976
1.0434041
1.0702408
1.0983111
1.125086
1.1483665
1.1668047
1.1799284
1.1874112
1.1902114
1.1902316
1.1884554
1.1856221
1.1824286
1.1794492
1.1769755
1.1748146
1.1722674
1.1693728
1.1677381
1.1669519
1.1666771
1.1665373
1.1673057
1.168547
1.1692613
1.1696123
1.169741
1.1697661
1.1693344
1.1688444
1.1685371
1.1683869
1.1684453
0.85790855
0.86298319
0.89074583
0.92121026
0.91633064
0.92435282
0.92220325
0.92932428
0.93073566
0.93852852
0.9434734
0.9533425
0.962538
0.97591568
0.99069432
1.009355
1.0309736
1.0561857
1.0836759
1.1117
1.1376659
1.1595802
1.1764417
1.187638
1.1931853
1.1946131
1.1936515
1.1910538
1.1876077
1.1839711
1.1806909
1.1780016
1.1756161
1.1727762
1.1697288
1.168013
1.1671919
1.1669091
1.1667714
1.1676044
1.1687086
1.1693293
1.1696259
1.1697357
1.1697504
1.1692727
1.1688024
1.1684996
1.16835
1.1684003
0.86391715
0.86907057
0.89825967
0.92714113
0.92175435
0.9300308
0.92804895
0.93542268
0.93714638
0.94528705
0.95072687
0.96112038
0.97104677
0.9851625
1.0009336
1.0206141
1.0433751
1.0695233
1.0974776
1.1251936
1.150116
1.1705382
1.1856661
1.1947871
1.1984729
1.1987348
1.1967846
1.1934243
1.1894154
1.1853783
1.181833
1.1789513
1.1763446
1.173217
1.17004
1.1682578
1.1674156
1.1671357
1.1670061
1.1678888
1.1688493
1.169384
1.1696317
1.1697227
1.1697281
1.1692147
1.1687622
1.1684641
1.1683143
1.1683541
0.87018845
0.87559635
0.90592879
0.93326457
0.92743958
0.93597062
0.93417493
0.94181471
0.943882
0.95239863
0.9583828
0.96934025
0.98005245
0.99494907
1.01177
1.032521
1.0564167
1.0833903
1.1115785
1.1387122
1.1623811
1.181214
1.1943642
1.2013351
1.2033862
1.2025445
1.1996452
1.1955796
1.1910564
1.1866598
1.1828837
1.1798297
1.177002
1.1735908
1.1703087
1.1684769
1.1676266
1.1673569
1.1672388
1.1681368
1.1689734
1.1694301
1.1696335
1.1697031
1.1696983
1.1691597
1.1687213
1.1684302
1.1682837
1.1683069
0.87669677
0.88254618
0.91363369
0.93966749
0.93335982
0.94216944
0.94058866
0.9485239
0.95097874
0.95990387
0.96648391
0.97802437
0.98958524
1.0053181
1.0232468
1.0451086
1.0700972
1.0977367
1.1258919
1.1521705
1.1744054
1.1915055
1.2024578
1.2072983
1.2079925
1.2060218
1.2022439
1.1975315
1.1925412
1.1878249
1.18385
1.1806406
1.1775891
1.1738998
1.1705387
1.1686748
1.167827
1.1675712
1.1674657
1.1683667
1.1690807
1.1694686
1.1696343
1.1696821
1.1696583
1.169107
1.1686809
1.1683989
1.1682569
1.1682591
0.88349431
0.89000434
0.92141987
0.9460929
0.93956178
0.94867715
0.94734372
0.95559127
0.95847401
0.9678359
0.97505962
0.98720717
0.99968476
1.0163188
1.0354113
1.058405
1.0844026
1.1124996
1.1403295
1.1654971
1.1861505
1.2012829
1.2098974
1.2127939
1.2122524
1.2091864
1.2045962
1.1992934
1.1938812
1.1888831
1.184739
1.1813877
1.1781085
1.1741531
1.1707355
1.1688555
1.1680181
1.1677775
1.1676843
1.1685711
1.1691719
1.1694994
1.169636
1.1696736
1.1696009
1.169056
1.1686418
1.16837
1.1682326
1.1682118
0.890576
0.89793647
0.92926395
0.95255292
0.94609705
0.95552798
0.95447383
0.96304499
0.96639452
0.97621825
0.98412835
0.99694286
1.0104011
1.0280071
1.0483094
1.0724247
1.0992951
1.1275924
1.154792
1.1786178
1.1975496
1.2104125
1.2166525
1.217945
1.2161318
1.2120499
1.2067162
1.2008779
1.1950871
1.189843
1.1855564
1.1820727
1.1785621
1.1743667
1.1709057
1.1690226
1.1682005
1.1679751
1.1678944
1.1687499
1.169251
1.1695252
1.1696368
1.1696685
1.1695361
1.169006
1.168604
1.1683438
1.168209
1.1681669
0.89813955
0.90652747
0.93728781
0.95940291
0.95299805
0.96274678
0.96200014
0.97091176
0.97477139
0.98508779
0.99373881
1.0072743
1.0217945
1.040442
1.0619817
1.0871677
1.1147194
1.1429212
1.1691907
1.191473
1.2084561
1.21884
1.2228408
1.2227099
1.2196513
1.2146312
1.2086204
1.2022984
1.1961698
1.1907135
1.1863083
1.1826987
1.1789527
1.17455
1.1710543
1.1691787
1.1683753
1.1681643
1.1680963
1.1689021
1.1693192
1.1695475
1.1696378
1.1696633
1.1694695
1.1689565
1.168568
1.1683195
1.1681852
1.168125
0.90586648
0.91566595
0.94554849
0.96669416
0.96025556
0.97033482
0.96993936
0.97921503
0.98363984
0.99448522
1.0039466
1.0182751
1.033932
1.0536814
1.076456
1.1026081
1.1305931
1.1583745
1.1834332
1.2039991
1.2187131
1.2265092
1.228587
1.2270603
1.2228244
1.2169469
1.2103236
1.2035674
1.1971396
1.1915026
1.1870002
1.183271
1.1792847
1.1746734
1.1711826
1.1693265
1.1685441
1.1683459
1.1682919
1.1690264
1.1693755
1.169566
1.1696383
1.1696564
1.1694046
1.1689073
1.1685337
1.1682965
1.168161
1.1680854
0.91390442
0.92539793
0.95394917
0.97427937
0.96791831
0.97833554
0.9783299
0.98799381
0.99304111
1.0044582
1.014843
1.0300239
1.0468805
1.0677753
1.0917427
1.118699
1.1468187
1.1738464
1.1974353
1.216077
1.2282188
1.233486
1.2339213
1.2309915
1.2256734
1.2190165
1.2118422
1.2046978
1.1980068
1.1922182
1.1876385
1.1837989
1.1795703
1.174726
1.1712911
1.1694676
1.1687075
1.16852
1.1684816
1.1691246
1.1694204
1.1695804
1.1696379
1.1696483
1.1693372
1.1688586
1.168501
1.1682739
1.1681362
1.1680477
0.92223391
0.93574963
0.96259287
0.98224725
0.97601405
0.98677916
0.98721558
0.9973011
1.0030447
1.0150967
1.0264978
1.0426004
1.0607044
1.0827612
1.1078285
1.1353622
1.1632771
1.1892255
1.2111149
1.2275243
1.236904
1.2399016
1.2388008
1.2345266
1.2282177
1.2208582
1.2131908
1.2057012
1.1987808
1.1928675
1.1882289
1.1842904
1.1798196
1.1747462
1.1713834
1.1696029
1.1688649
1.1686858
1.1686567
1.1692083
1.169457
1.1695887
1.1696342
1.1696378
1.16927
1.1688098
1.1684696
1.1682513
1.1681109
1.1680119
0.9308073
0.94672143
0.97148183
0.99060857
0.98457889
0.99571587
0.99666448
1.0072109
1.0137395
1.0264977
1.0389903
1.0560775
1.0754595
1.0986595
1.1246754
1.1524997
1.1798466
1.2044107
1.2243892
1.2381745
1.2447649
1.2458704
1.2431973
1.2376883
1.2304808
1.2224913
1.2143849
1.2065899
1.1994711
1.1934582
1.1887773
1.1847465
1.1800038
1.1747575
1.1714642
1.1697328
1.1690154
1.1688421
1.168817
1.1692814
1.1694877
1.1695919
1.1696261
1.1696215
1.1692058
1.1687615
1.1684392
1.1682284
1.1680853
1.1679778
0.93960606
0.95834338
0.98068433
0.99944989
0.9937091
1.0052328
1.0067639
1.0178083
1.0252156
1.0387511
1.0524045
1.0705239
1.0911882
1.1154667
1.1422121
1.1699852
1.1963945
1.2192899
1.2370491
1.2479491
1.2519384
1.2513332
1.2471417
1.2405003
1.2324841
1.2239336
1.2154384
1.2073746
1.2000864
1.1939973
1.1892882
1.1851587
1.1800634
1.1747643
1.1715381
1.1698584
1.1691592
1.1689867
1.1689623
1.1693441
1.1695122
1.1695932
1.1696174
1.1695952
1.169143
1.1687146
1.1684098
1.1682049
1.1680596
1.1679456
0.94869678
0.97070191
0.99036361
1.0088605
1.0034804
1.0154124
1.0176043
1.0291957
1.0375744
1.0519353
1.0668112
1.0859984
1.1079176
1.1331517
1.16034
1.1876798
1.2127952
1.2337629
1.2489011
1.2567853
1.258592
1.2562546
1.2506575
1.2429899
1.234251
1.2252036
1.2163656
1.2080664
1.2006353
1.1944918
1.1897649
1.1855199
1.1800569
1.1747733
1.1716093
1.169981
1.1692961
1.1691173
1.1690921
1.169397
1.1695315
1.1695937
1.1696146
1.1695526
1.1690811
1.1686688
1.1683812
1.1681811
1.1680341
1.1679153
0.95809949
0.98401219
1.0005089
1.0189245
1.0139813
1.0263436
1.0292951
1.0414858
1.0509264
1.0661128
1.0822684
1.1025543
1.1256552
1.1516499
1.1789258
1.2054282
1.2289086
1.24765
1.2598055
1.2648082
1.2646839
1.2606549
1.2537732
1.245183
1.2358028
1.2263179
1.2171791
1.2086752
1.2011261
1.1949479
1.1902091
1.1858284
1.1800197
1.1747912
1.171681
1.1700996
1.1694232
1.1692358
1.169206
1.1694418
1.1695481
1.1695939
1.1696118
1.1694986
1.1690202
1.1686241
1.1683529
1.1681569
1.1680092
1.167887
0.96787702
0.99831792
1.0112362
1.0297404
1.025318
1.0381345
1.0419474
1.0547694
1.0653222
1.081388
1.0988461
1.120229
1.1443793
1.1708605
1.1978156
1.2230778
1.2446067
1.2607225
1.2696889
1.2721833
1.2701796
1.2645652
1.2565206
1.2471076
1.2371617
1.2272935
1.2178919
1.2092111
1.2015666
1.1953707
1.1906215
1.1860887
1.1799603
1.1748134
1.1717539
1.170213
1.1695384
1.1693412
1.1693057
1.1694774
1.1695564
1.1695904
1.1696058
1.169437
1.1689604
1.1685812
1.1683247
1.1681328
1.1679849
1.1678608
0.97811597
1.0136641
1.0227165
1.0414229
1.0376069
1.0508936
1.0556639
1.0691373
1.0808514
1.0978314
1.1166035
1.1390418
1.1640316
1.1906415
1.21683
1.2404627
1.2597307
1.2727753
1.2786121
1.2789458
1.2750742
1.2680178
1.2589301
1.2487891
1.2383476
1.2281455
1.2185154
1.2096829
1.201964
1.1957648
1.1910027
1.1863043
1.1798763
1.1748388
1.1718268
1.1703199
1.1696415
1.1694307
1.1693926
1.1695052
1.16956
1.1695834
1.1695944
1.1693718
1.1689016
1.1685401
1.168297
1.1681089
1.1679612
1.167837
0.98887741
1.0301787
1.0350857
1.05408
1.05096
1.0647028
1.0705161
1.0846499
1.0976142
1.1155372
1.1355929
1.1589784
1.1845086
1.2108188
1.2357861
1.2574175
1.2740138
1.2837204
1.2867552
1.2850419
1.2794114
1.2710499
1.2610351
1.2502543
1.2393812
1.2288892
1.2190612
1.2100998
1.2023253
1.1961338
1.191354
1.1864802
1.1797833
1.1748659
1.1718981
1.170419
1.1697366
1.169512
1.1694698
1.1695246
1.1695605
1.1695739
1.1695784
1.1693005
1.1688442
1.1685004
1.1682695
1.1680853
1.1679385
1.1678156
1.0003836
1.0478957
1.0484095
1.0677868
1.0654724
1.0796267
1.0865596
1.1013983
1.115699
1.1345933
1.1558433
1.1799814
1.2056552
1.2311829
1.2544838
1.273766
1.2872056
1.2935609
1.2942165
1.2904513
1.2832248
1.2736975
1.2628656
1.2515268
1.2402803
1.2295383
1.2195394
1.2104698
1.2026564
1.1964811
1.1916772
1.1866224
1.1796882
1.1748938
1.171967
1.1705109
1.1698235
1.1695833
1.1695334
1.1695396
1.1695598
1.1695677
1.169552
1.1692256
1.1687881
1.1684619
1.1682421
1.1680623
1.167917
1.1677966
1.0129673
1.0669263
1.0628814
1.0825904
1.0811968
1.0957169
1.1038882
1.1195081