/*--------------------------------*- C++ -*----------------------------------*\
  =========                 |
  \\      /  F ield         | OpenFOAM: The Open Source CFD Toolbox
   \\    /   O peration     | Website:  https://openfoam.org
    \\  /    A nd           | Version:  8
     \\/     M anipulation  |
\*---------------------------------------------------------------------------*/
FoamFile
{
    version     2.0;
    format      ascii;
    class       surfaceVectorField;
    location    "0.10999";
    object      rhoUf;
}
// * * * * * * * * * * * * * * * * * * * * * * * * * * * * * * * * * * * * * //

dimensions      [1 -2 -1 0 0 0 0];

internalField   nonuniform List<vector> 
39600
(
(199.3956 1.1581075e-16 8.3357348)
(185.51055 2.124435e-16 7.1561503)
(184.34429 -7.6276449e-17 7.8325718)
(226.76756 -5.5098714e-17 9.4246369)
(217.64913 6.9196872e-21 8.6785704)
(216.46424 -1.5224336e-19 9.4593906)
(247.20318 2.8061525e-17 10.186076)
(239.08136 -5.9428205e-17 9.4117523)
(237.8004 -1.7115697e-16 10.275802)
(266.57947 7.1581801e-17 10.862682)
(258.39543 4.892354e-17 10.066302)
(256.99323 1.0829285e-16 10.993601)
(287.04602 -1.3722811e-17 11.529713)
(277.92798 2.1969343e-18 10.66894)
(276.38611 1.1419678e-16 11.668689)
(304.67024 1.1809754e-17 12.001302)
(299.65259 3.8112512e-17 11.368829)
(297.81766 -2.9631381e-17 12.43627)
(313.23642 -3.6683001e-17 12.268041)
(311.75116 -3.270062e-17 11.351638)
(311.34611 -9.6077158e-17 12.543395)
(314.15582 -3.3544523e-19 12.290244)
(315.06953 2.9031981e-17 12.078931)
(315.0318 5.1473466e-17 13.255594)
(313.74213 1.7491219e-17 12.262549)
(312.88997 -2.4968989e-17 11.120302)
(312.89512 -3.8516129e-19 12.37859)
(314.11585 6.0861531e-18 12.253548)
(314.54894 -7.6713017e-19 12.201124)
(314.49909 -1.5790157e-17 13.422086)
(313.97519 -1.8438609e-17 12.216882)
(313.37693 6.6684884e-19 10.950893)
(313.33425 1.2867692e-17 12.26758)
(314.30621 1.0409983e-17 12.184224)
(314.47778 0 12.147539)
(314.39815 0 13.433336)
(314.35099 5.8346617e-19 12.122643)
(313.90632 5.4305273e-18 10.870557)
(313.82169 1.1853782e-17 12.243542)
(314.69387 -1.0691335e-17 12.054469)
(314.71072 -1.1751331e-17 11.931634)
(314.60286 -3.1692042e-17 13.282857)
(314.88359 7.3863112e-18 11.961904)
(314.48967 8.0500385e-18 10.822746)
(314.39208 1.934301e-17 12.24164)
(315.29328 1.1234524e-18 11.841257)
(315.16516 -1.1204864e-19 11.579725)
(315.03497 1.6181968e-17 13.004743)
(315.64481 -5.1656094e-18 11.672134)
(315.22854 -2.7523744e-18 10.684511)
(315.08724 -1.3909705e-17 12.170426)
(316.16345 -3.4533633e-18 11.443586)
(315.91785 1.01209e-19 11.055192)
(315.74326 -1.1707464e-17 12.573895)
(316.67732 -7.1120599e-19 11.162209)
(316.26674 -5.0153689e-18 10.316303)
(316.093 -5.7853726e-19 11.89485)
(317.34251 4.4450876e-19 10.813317)
(317.04065 4.0213397e-19 10.312462)
(316.85353 7.9940572e-18 11.957961)
(318.04867 4.2708722e-18 10.359921)
(317.66096 0 9.61883)
(317.4581 0 11.343022)
(318.87433 -6.3944126e-18 9.7939284)
(318.55115 4.6653013e-18 9.243483)
(318.33528 4.5630825e-18 11.057854)
(319.72695 -2.0011818e-17 9.0822566)
(319.37943 -2.0755394e-17 8.4239048)
(319.14703 -1.2187084e-17 10.334962)
(320.59973 -7.3090143e-18 8.2236359)
(320.33602 2.5003496e-19 7.656958)
(320.09286 -2.4073628e-18 9.6712278)
(321.35796 -1.0931531e-17 7.2193214)
(321.17316 5.8883171e-18 6.6058907)
(320.92608 -1.7008224e-18 8.7097225)
(321.88871 -1.3611848e-17 6.1062569)
(321.87608 -1.683129e-17 5.5170859)
(321.63516 -7.7824705e-18 7.6862353)
(322.01298 -6.6644695e-18 4.952674)
(322.21423 4.1510976e-17 4.3225568)
(321.99073 1.1223311e-18 6.5009825)
(321.6045 -1.5613978e-17 3.8627572)
(322.06643 2.1213966e-19 3.2172854)
(321.87233 -5.8474112e-18 5.3294559)
(320.60826 -1.3507031e-18 2.9464833)
(321.31041 5.039334e-17 2.2765286)
(321.15484 -1.4802334e-17 4.2342009)
(319.10212 2.2830908e-17 2.2827969)
(319.98393 -1.020669e-17 1.6193426)
(319.86975 1.1174002e-17 3.3507692)
(317.25718 -1.0153439e-17 1.8991133)
(318.22645 2.9845852e-17 1.2595584)
(318.15096 1.7306999e-17 2.7245495)
(315.28131 -3.1813853e-17 1.7582262)
(316.24758 -3.4805716e-17 1.1743433)
(316.20228 -1.3314013e-17 2.3694483)
(313.35119 6.8732485e-18 1.7831546)
(314.24765 -2.0849442e-19 1.2772959)
(314.22247 5.1850153e-18 2.2248494)
(311.57896 2.0031676e-17 1.8858515)
(312.37548 2.4353621e-17 1.4714811)
(312.36028 5.0879603e-18 2.206878)
(310.03268 5.4106082e-18 1.9976452)
(310.70927 1.2692558e-17 1.6864354)
(310.69777 6.9831944e-18 2.2458887)
(308.72928 -4.9867871e-17 2.0609729)
(309.30082 5.8967668e-17 1.8481636)
(309.28769 -5.1207658e-18 2.2667048)
(307.66143 -5.8892197e-17 2.0619288)
(308.11769 1.4961898e-16 1.9327213)
(308.10259 -2.360116e-17 2.2413557)
(306.81353 -1.2321451e-17 1.9954284)
(307.17782 -1.1212466e-16 1.9357206)
(307.16086 -4.6462695e-18 2.1605318)
(306.15896 -4.3468476e-17 1.871805)
(306.43248 -1.5148107e-16 1.8663978)
(306.41497 -7.8978539e-20 2.0280426)
(305.66949 -7.0896959e-17 1.6961131)
(305.88027 1.3690536e-17 1.7342687)
(305.8629 -2.0868971e-17 1.8498845)
(305.30892 -8.0880159e-18 1.4811751)
(305.4617 -1.8541408e-16 1.5474778)
(305.44597 -9.1581389e-18 1.6308561)
(305.05611 1.5362248e-17 1.2244439)
(305.16618 2.7713556e-17 1.3246055)
(305.15204 5.2831083e-19 1.3822656)
(304.90451 5.2447278e-17 0.91294489)
(304.96 -3.1469229e-19 1.0551267)
(304.94709 2.6306822e-18 1.0944313)
(304.82843 6.6001275e-17 0.52667881)
(304.8682 9.9494008e-20 0.70783256)
(304.85641 1.24741e-17 0.73839337)
(304.77904 5.8029901e-17 0.11337964)
(304.81588 -1.7216062e-19 0.2676944)
(304.80785 3.8802312e-18 0.30154492)
(304.86542 7.2668632e-17 0.26036729)
(304.69987 1.305926e-16 -0.13086199)
(304.73754 1.0888851e-17 -0.10200664)
(304.78731 -4.1365345e-18 0.024310348)
(304.65653 6.0616817e-18 -0.3640397)
(304.65881 1.3929455e-18 -0.35484287)
(304.73965 3.6992996e-18 -0.72551032)
(304.68053 -8.218082e-17 -0.42745141)
(304.64504 1.7175971e-18 -0.43510018)
(305.01728 -1.4007826e-17 -0.45938256)
(304.9492 7.179882e-18 -0.4031096)
(304.9675 8.9384431e-19 -0.41008319)
(305.07895 -4.7112404e-17 -0.80840728)
(305.07521 -3.0112442e-18 -0.82397469)
(200.65604 1.1689558e-16 7.6000733)
(186.37165 2.1554256e-16 6.4517582)
(228.02045 3.7998806e-19 8.5679595)
(218.62857 -1.5856012e-19 7.8564787)
(248.53402 -4.7446148e-17 9.2469037)
(240.16992 4.8457138e-19 8.50053)
(268.01001 -1.520526e-17 9.8484505)
(259.61127 -5.181881e-17 9.0823611)
(288.63926 5.0026782e-17 10.439341)
(279.29737 4.5222892e-17 9.6012188)
(305.7591 1.469149e-19 10.82998)
(301.2934 -3.0503932e-19 10.23016)
(313.46138 2.667838e-17 11.039983)
(312.0477 -1.1236507e-18 10.088006)
(314.21106 9.1742069e-18 11.036632)
(315.17689 2.8353161e-17 10.852416)
(313.78817 -4.4686989e-17 10.992192)
(312.95263 -2.3259273e-17 9.8071889)
(314.17741 -6.1718757e-18 10.955175)
(314.69002 -1.9741256e-17 10.94972)
(314.03126 1.8727767e-17 10.894426)
(313.48266 8.3804469e-18 9.5912283)
(314.37274 -5.2904868e-18 10.830776)
(314.62325 7.142434e-18 10.850079)
(314.41517 -5.2630331e-18 10.748115)
(314.01829 -8.7413051e-18 9.4748798)
(314.75819 5.0085304e-18 10.656702)
(314.84216 -1.3154119e-18 10.581142)
(314.94668 1.3722799e-18 10.535011)
(314.61385 8.1861105e-18 9.390609)
(315.35891 -3.6943042e-18 10.384218)
(315.31547 1.4870936e-19 10.155753)
(315.70399 2.1628196e-18 10.169792)
(315.40162 -5.8492865e-18 9.193272)
(316.21964 -1.0226923e-18 9.9073343)
(316.10125 -7.4521846e-18 9.5464023)
(316.74047 -4.3667705e-18 9.5662263)
(316.46232 8.3850067e-18 8.7455925)
(317.41731 0 9.1470124)
(317.24852 0 8.6840648)
(318.15328 0 8.6193055)
(317.88105 0 7.9095088)
(319.02863 -7.2809005e-18 7.9641514)
(318.7893 4.9423706e-18 7.4469527)
(319.92962 -2.6786051e-18 7.1557216)
(319.63017 4.4561037e-18 6.5353967)
(320.83985 1.2707927e-17 6.2069937)
(320.58743 6.7178532e-18 5.6734554)
(321.6211 2.103063e-18 5.1264611)
(321.41811 -1.1921264e-17 4.5390996)
(322.15502 3.2091412e-17 3.9758643)
(322.09972 -1.4757814e-17 3.3909137)
(322.26364 5.2022538e-17 2.8435401)
(322.40358 4.5377495e-17 2.1899321)
(321.82372 6.0538213e-17 1.8545524)
(322.20908 7.0395917e-18 1.1505464)
(320.79038 4.7378154e-17 1.1168967)
(321.40253 5.8384983e-17 0.35948161)
(319.2495 -7.1691995e-18 0.68993824)
(320.02998 6.03979e-17 -0.079096971)
(317.37573 1.189464e-17 0.56648236)
(318.23707 2.4039141e-17 -0.18104233)
(315.37469 -7.0385449e-18 0.68014288)
(316.23605 -1.2809422e-17 -0.0039192962)
(313.42468 1.4591482e-17 0.93310521)
(314.2264 -9.4642133e-17 0.34098509)
(311.64142 1.8254735e-17 1.2303636)
(312.3539 2.445833e-17 0.74362716)
(310.09092 6.0878279e-17 1.5020452)
(310.69245 1.6449233e-19 1.1323783)
(308.7842 2.473081e-16 1.6930436)
(309.29276 8.8839238e-18 1.4338194)
(307.71064 1.2490876e-16 1.792986)
(308.11738 -6.2709722e-17 1.6275121)
(306.85756 -2.4621351e-16 1.8019779)
(307.18366 1.3055071e-18 1.7140943)
(306.19826 -1.1269553e-16 1.7346822)
(306.44215 -1.7613655e-16 1.7079812)
(305.70504 -7.8333335e-17 1.5997939)
(305.89216 7.4887102e-17 1.6221612)
(305.34088 -1.7347474e-16 1.4147087)
(305.47353 -3.6284382e-17 1.4676912)
(305.08303 1.520532e-17 1.1809263)
(305.1777 2.7342891e-17 1.2709298)
(304.92682 -5.2725532e-17 0.88412751)
(304.97135 0 1.0209015)
(304.85133 -6.6125152e-17 0.50605032)
(304.87901 -5.9470856e-17 0.68190594)
(304.81069 5.7919307e-17 0.25876339)
(304.80875 1.7497428e-16 0.23892848)
(304.80719 7.7801746e-17 0.24044968)
(304.67639 5.7273358e-17 -0.15383143)
(304.77926 -5.9749609e-17 -0.055353145)
(304.65724 1.2110001e-17 -0.36971201)
(304.76746 -8.6156319e-17 -0.66562067)
(304.70657 -1.4933814e-17 -0.41620374)
(305.00443 -1.943408e-17 -0.47317429)
(304.93555 -1.0614147e-16 -0.39127689)
(305.081 -6.3027964e-17 -0.7816341)
(201.44229 1.1857251e-16 6.8267888)
(187.103 1.6343447e-16 5.7119046)
(228.96354 -1.0580603e-19 7.6914488)
(219.54999 6.3487017e-19 7.0031877)
(249.62633 2.6685857e-19 8.2923176)
(241.23517 2.4137237e-19 7.5603765)
(269.26583 -3.3190129e-19 8.8172217)
(260.83612 0 8.06751)
(290.12177 -3.9760515e-19 9.324466)
(280.70681 -3.6054098e-19 8.4924288)
(306.77916 -1.4827966e-18 9.6233084)
(302.96275 6.5433125e-19 9.0558784)
(313.66522 -1.7779427e-18 9.7760396)
(312.33539 -4.90196e-19 8.7909302)
(314.30357 6.9279288e-19 9.7554076)
(315.32701 0 9.5936984)
(313.87459 8.307903e-19 9.6949271)
(313.08083 -8.1490857e-19 8.4649899)
(314.26596 -7.7180917e-18 9.6414087)
(314.86577 0 9.6818394)
(314.10701 -2.8442499e-18 9.5629752)
(313.6213 -8.3894999e-18 8.2251081)
(314.45778 5.0170169e-18 9.4828007)
(314.78755 1.0618772e-17 9.55483)
(314.49419 -5.4763263e-18 9.38133)
(314.14775 1.2022151e-19 8.088552)
(314.84028 1.041213e-18 9.2690223)
(314.98804 -2.4500683e-18 9.2352332)
(315.02499 7.6324609e-18 9.112977)
(314.76655 4.0701821e-18 7.9660752)
(315.43704 -1.4806816e-18 8.9274195)
(315.48589 -3.6112996e-19 8.7345411)
(315.79712 -1.512478e-17 8.6791861)
(315.58493 -5.5443556e-18 7.7057562)
(316.35141 4.7311446e-19 8.3745659)
(316.30435 3.8098729e-19 8.0310175)
(316.92029 1.3337926e-17 7.9746196)
(316.68552 3.7039511e-18 7.166696)
(317.6489 0 7.484226)
(317.48504 -1.7645552e-17 7.046481)
(318.41618 4.4316349e-18 6.8673063)
(318.13189 -4.9798424e-20 6.194886)
(319.29322 1.6489542e-17 6.1218947)
(319.0475 -7.652866e-18 5.6450039)
(320.18586 1.3478156e-17 5.220689)
(319.895 3.7498209e-18 4.6446056)
(321.07787 -1.5842287e-17 4.1833942)
(320.84537 3.5156091e-18 3.6901097)
(321.83041 -2.8191461e-17 3.0306881)
(321.6596 6.7198071e-18 2.4762755)
(322.32267 -7.1046958e-18 1.845105)
(322.30618 -9.8405446e-18 1.2730465)
(322.37837 4.6694695e-18 0.73772799)
(322.55987 -9.9743732e-17 0.070727671)
(321.88058 1.3175583e-19 -0.1483863)
(322.30284 0 -0.89817386)
(320.79365 7.1091758e-17 -0.70636073)
(321.43446 -4.857166e-17 -1.537381)
(319.21134 9.4675802e-17 -0.89674811)
(320.01138 8.9092362e-17 -1.7580167)
(317.31226 3.2868478e-18 -0.75986876)
(318.18574 2.5465958e-21 -1.6046537)
(315.30281 -9.1191017e-17 -0.39185557)
(316.16995 1.1405028e-16 -1.1680794)
(313.35692 -9.7045343e-17 0.088755814)
(314.16004 -8.4382295e-18 -0.58404673)
(311.58402 9.0299195e-18 0.57944649)
(312.29651 -1.3394595e-16 0.024427258)
(310.04672 -5.2361751e-17 1.0096128)
(310.64804 0 0.5845559)
(308.75453 -2.9130159e-16 1.326625)
(309.26393 -2.3786137e-16 1.0235479)
(307.69377 -1.9243103e-16 1.5239847)
(308.10178 -1.1738713e-16 1.3244759)
(306.85036 9.0401298e-17 1.607167)
(307.17842 1.0122234e-16 1.4931691)
(306.19761 -1.707147e-17 1.5952667)
(306.44393 1.1070502e-16 1.5492196)
(305.70804 1.2922033e-16 1.5004007)
(305.89857 1.2503301e-17 1.5090259)
(305.34537 1.569291e-16 1.3445981)
(305.48147 4.2833593e-16 1.3862288)
(305.08917 1.5238596e-17 1.1334627)
(305.18641 1.3675942e-17 1.2152459)
(304.9342 0 0.84987683)
(304.98105 -3.2279307e-16 0.98502789)
(304.84843 1.5541415e-16 0.47969311)
(304.88874 2.3700203e-16 0.6511126)
(304.83862 1.8768651e-16 0.3587425)
(304.78975 1.864683e-16 0.20674077)
(304.79858 -8.0555409e-18 0.19375507)
(304.66436 -4.0218246e-16 -0.17506368)
(304.76476 6.3158681e-17 -0.10833154)
(304.65968 1.9677962e-16 -0.37344037)
(304.76877 -2.1517925e-17 -0.63639259)
(304.72778 7.2647526e-17 -0.40714752)
(304.99888 -1.5578265e-16 -0.48914973)
(304.92544 -6.8276776e-18 -0.37967212)
(305.08201 4.1059816e-17 -0.75609302)
(202.22693 6.1360379e-17 6.028478)
(187.85005 -1.9339681e-18 4.9575767)
(229.92679 1.0045324e-18 6.7819163)
(220.49364 4.0809409e-17 6.1301764)
(250.74004 1.4965196e-23 7.2978299)
(242.32162 1.7120494e-22 6.5980925)
(270.54948 0 7.7410305)
(262.08878 8.8312443e-19 7.0291761)
(291.60643 5.874003e-19 8.1592812)
(282.15903 0 7.3539458)
(307.7438 1.7109859e-18 8.3739358)
(304.60681 6.3816779e-19 7.8530695)
(313.80358 1.2070786e-18 8.4795255)
(312.57314 1.0939641e-18 7.4733657)
(314.36997 -1.4092897e-18 8.4474155)
(315.49266 1.5276878e-17 8.3208429)
(313.94968 -1.6900446e-18 8.3829317)
(313.2064 -1.2682429e-17 7.1087129)
(314.35975 0 8.3247154)
(315.03623 1.329509e-17 8.4075745)
(314.2161 3.2715353e-18 8.241339)
(313.75749 -4.4202423e-18 6.8514643)
(314.56274 6.6576887e-18 8.1417083)
(314.98305 -3.8423069e-18 8.2583991)
(314.58827 3.2792156e-18 8.0263061)
(314.28797 2.970818e-18 6.6994466)
(314.95849 0 7.888366)
(315.16222 0 7.8824348)
(315.17217 -3.3929251e-18 7.7012534)
(314.94762 0 6.5315352)
(315.6227 -3.9196374e-18 7.4755455)
(315.68866 -3.6935803e-18 7.3027228)
(316.01265 9.1501068e-18 7.1795434)
(315.80008 1.8382413e-17 6.2064392)
(316.58422 3.2719457e-18 6.8207577)
(316.53371 2.1262726e-18 6.4996509)
(317.1604 -2.4885416e-17 6.3612559)
(316.92961 -1.0313715e-17 5.571733)
(317.8916 -1.9137564e-17 5.8038759)
(317.7392 6.8010732e-19 5.3926684)
(318.66565 -1.1262535e-17 5.110074)
(318.39831 -6.0934804e-18 4.4690636)
(319.55273 -2.110136e-17 4.2806773)
(319.31819 5.4751436e-18 3.8372211)
(320.44919 -6.0068361e-18 3.2915607)
(320.16737 -4.0141214e-18 2.7525314)
(321.33133 2.5392719e-17 2.1705341)
(321.10358 3.2668289e-17 1.7098192)
(322.0578 2.6225566e-17 0.95148391)
(321.89168 2.3671549e-17 0.42232207)
(322.50403 -9.2882825e-17 -0.26278613)
(322.49043 -4.194061e-17 -0.82850338)
(322.49797 -1.1346883e-16 -1.3387183)
(322.67931 -3.1749241e-17 -2.0232153)
(321.93187 -4.3447836e-17 -2.1176341)
(322.34585 -5.9721271e-17 -2.9132663)
(320.78434 -4.3993648e-17 -2.4949664)
(321.40595 5.1763452e-17 -3.3957161)
(319.15914 4.3237557e-18 -2.451579)
(319.92909 -6.1333113e-17 -3.3983457)
(317.2377 9.8127782e-17 -2.0591883)
(318.07389 -1.5105253e-16 -2.9936134)
(315.22313 2.0827011e-16 -1.4423827)
(316.05073 1.0855597e-17 -2.3034022)
(313.28421 -3.2094025e-17 -0.73906857)
(314.04985 8.4340895e-17 -1.4864134)
(311.52521 -1.568815e-16 -0.059232262)
(312.20431 -5.6540402e-18 -0.67766173)
(310.00486 -1.5881393e-16 0.52603897)
(310.57673 -1.3157347e-17 0.049323771)
(308.72921 -7.8023565e-17 0.96628602)
(309.21485 1.4305155e-16 0.62224831)
(307.6815 1.507008e-16 1.258987)
(308.0713 -1.0096864e-16 1.0274481)
(306.84773 1.2039158e-16 1.414851)
(307.16236 -1.8317742e-16 1.2760538)
(306.20149 1.5108856e-16 1.4573787)
(306.438 1.1832572e-16 1.392712)
(305.7157 2.6422208e-16 1.4018958)
(305.8996 1.2641369e-17 1.3971421)
(305.35446 3.3208104e-16 1.2748296)
(305.48561 3.1659532e-16 1.3053323)
(305.09892 -2.8601052e-16 1.0861801)
(305.19243 2.3374441e-16 1.1596295)
(304.94465 -1.4935666e-16 0.81550453)
(304.98908 -1.0265742e-17 0.94937188)
(304.84809 2.7380432e-16 0.45210141)
(304.89679 -6.5573068e-18 0.6178061)
(304.82807 -3.3449497e-16 0.36013433)
(304.76845 -5.2115086e-16 0.17409842)
(304.77848 -2.6916035e-16 0.15245705)
(304.65644 -1.3226034e-16 -0.19345893)
(304.76043 2.2052762e-16 -0.14300428)
(304.66217 3.0914343e-18 -0.37553898)
(304.77545 9.708207e-17 -0.61827393)
(304.7454 8.9983198e-18 -0.39736914)
(304.99387 1.8757328e-16 -0.50004923)
(304.91723 3.1112212e-16 -0.36798514)
(305.08234 8.6062066e-17 -0.73014244)
(203.09819 -2.5462008e-17 5.2222848)
(188.64934 -5.5769067e-17 4.1871936)
(230.94197 4.2992811e-17 5.8651876)
(221.46599 8.0328903e-17 5.2324773)
(251.89863 7.9440057e-19 6.2972275)
(243.4332 -3.419857e-17 5.6131523)
(271.892 9.5167975e-19 6.659139)
(263.37631 -9.4003621e-19 5.9695781)
(293.13322 0 6.9854215)
(283.67576 0 6.1875118)
(308.71969 0 7.1189349)
(306.23528 -2.1749883e-17 6.6252515)
(314.01071 1.3734102e-17 7.1795142)
(312.81076 -2.5618674e-20 6.1383949)
(314.54469 6.4443472e-18 7.1352946)
(315.68624 3.0451995e-17 7.0355337)
(314.13291 -7.0625926e-20 7.0627503)
(313.35457 -7.6448581e-18 5.7356104)
(314.55663 1.0358737e-17 6.9948938)
(315.21667 1.0288147e-17 7.1170235)
(314.41332 -1.1414743e-17 6.8974393)
(313.91401 -4.319463e-18 5.456607)
(314.77229 -7.9810273e-18 6.7951503)
(315.15845 -3.4553488e-18 6.937921)
(314.77209 0 6.6503299)
(314.46739 0 5.2839198)
(315.15981 0 6.4808447)
(315.36971 5.9387862e-18 6.5039666)
(315.38105 0 6.259023)
(315.15597 -5.4962677e-19 5.072637)
(315.84073 1.635554e-17 5.9960254)
(315.91343 -9.2636725e-19 5.8457065)
(316.23954 1.2817729e-17 5.6574763)
(316.034 -4.6068483e-18 4.6862225)
(316.82562 -1.0163547e-17 5.2501423)
(316.78019 1.4610846e-17 4.9486138)
(317.41883 1.3821985e-17 4.7341527)
(317.19015 -4.2436009e-18 3.9612361)
(318.16552 1.4013864e-17 4.1116113)
(318.00855 6.5896368e-18 3.7236541)
(318.94946 9.3427812e-18 3.3427172)
(318.67886 -1.2094589e-17 2.7308725)
(319.83512 2.3031571e-17 2.4314717)
(319.59899 1.9953414e-17 2.0185255)
(320.72002 3.0785661e-17 1.3580948)
(320.44503 3.5011293e-17 0.85284979)
(321.57552 3.17548e-17 0.15816474)
(321.36033 2.64459e-18 -0.27428722)
(322.25813 -3.7504745e-17 -1.1201573)
(322.11286 5.0637069e-17 -1.6291902)
(322.64029 1.7299055e-17 -2.3541072)
(322.65158 -8.9857272e-17 -2.918462)
(322.55569 2.3708463e-17 -3.3881745)
(322.76177 8.3025477e-17 -4.0936931)
(321.9087 2.3651348e-17 -4.0512029)
(322.33921 2.0775575e-18 -4.892983)
(320.69392 4.5452357e-17 -4.2432441)
(321.31935 -9.0616679e-18 -5.210473)
(319.02571 -2.0597453e-16 -3.9666023)
(319.78625 -7.0802574e-17 -4.992806)
(317.08753 -2.5347127e-16 -3.3228243)
(317.90469 1.2349966e-16 -4.3398518)
(315.07789 -1.1923971e-16 -2.4632688)
(315.88116 -8.6421413e-17 -3.4022674)
(313.15759 1.1985711e-16 -1.5436037)
(313.89794 2.0290331e-19 -2.3596509)
(311.42291 1.3759951e-16 -0.68043921)
(312.07885 1.2543908e-16 -1.3575877)
(309.92826 2.6990385e-16 0.055168182)
(310.47963 2.2802983e-19 -0.46957951)
(308.67687 1.4658968e-16 0.61476915)
(309.14629 4.810396e-16 0.2325774)
(307.64889 -4.2400433e-16 0.99975358)
(308.02643 1.8203223e-17 0.73826288)
(306.8299 -2.1853856e-16 1.2260165)
(307.13581 -3.7808971e-16 1.0639369)
(306.19408 -7.7942953e-18 1.3213934)
(306.42454 -1.7046717e-17 1.2391526)
(305.71481 3.0672441e-17 1.304252)
(305.89535 1.2606299e-17 1.2868132)
(305.3569 2.2783937e-16 1.2051903)
(305.48602 -2.6220988e-16 1.2251808)
(305.10378 5.371791e-16 1.0385717)
(305.1958 -2.1659091e-19 1.1043524)
(304.95126 1.3208583e-16 0.78054782)
(304.99531 6.4526455e-16 0.91338358)
(304.84291 -7.442454e-16 0.42126866)
(304.9026 2.2035279e-16 0.58213088)
(304.81411 -3.6277507e-16 0.33848735)
(304.74676 -5.3413442e-16 0.14095473)
(304.7695 1.2581077e-16 0.11753374)
(304.65044 2.652097e-16 -0.20900793)
(304.75656 -2.1091202e-16 -0.17266503)
(304.66532 -1.9053845e-16 -0.37634734)
(304.7827 1.8713899e-16 -0.58769196)
(304.75947 0 -0.38770556)
(304.99034 2.3366872e-16 -0.50338842)
(304.91117 3.348902e-18 -0.35606706)
(305.08287 1.2966979e-18 -0.70418401)
(203.92401 3.6565308e-17 4.3858555)
(189.4153 2.8300236e-17 3.4121834)
(231.95676 1.3814331e-17 4.9129471)
(222.4152 4.0407723e-17 4.3124251)
(253.08723 -3.8475109e-17 5.2574388)
(244.53445 -5.0593642e-17 4.6033946)
(273.2994 -1.9427866e-18 5.5351202)
(264.66879 -8.4139121e-19 4.8878197)
(294.71123 -1.9555808e-17 5.7659719)
(285.23694 1.1213271e-17 4.9897686)
(309.70886 -2.3470019e-17 5.8265106)
(307.7977 -3.2328833e-17 5.3690717)
(314.21516 1.3935112e-17 5.849027)
(313.03278 -2.5029602e-20 4.782823)
(314.69781 1.9660564e-17 5.79793)
(315.87605 1.5171106e-17 5.7345655)
(314.26242 1.0744081e-18 5.7179894)
(313.51446 -6.7484156e-18 4.3406029)
(314.68906 -2.9143345e-18 5.6403507)
(315.4017 -2.6545969e-18 5.8062531)
(314.54001 3.3939902e-18 5.5273957)
(314.09426 -1.2132393e-20 4.0367925)
(314.91252 4.0733132e-18 5.4110719)
(315.34281 -1.4786796e-19 5.5873313)
(314.97217 5.3366934e-18 5.241109)
(314.67568 -6.8365494e-18 3.835552)
(315.3746 5.9149357e-18 5.0459565)
(315.59599 1.1537786e-17 5.0969858)
(315.60617 -1.4255923e-18 4.7942711)
(315.38163 -5.3750875e-19 3.5905518)
(316.08111 -2.1139339e-17 4.4965883)
(316.15394 1.4181907e-17 4.3660942)
(316.49326 -4.3950682e-18 4.1165113)
(316.28375 3.2998353e-18 3.1468802)
(317.09091 2.192864e-17 3.661288)
(317.04048 8.3792095e-18 3.3776229)
(317.69297 -1.2214172e-17 3.0894661)
(317.46284 8.9562937e-20 2.3330797)
(318.44528 -1.7447607e-17 2.4030953)
(318.28776 3.4173238e-17 2.0362262)
(319.23291 -4.3813873e-18 1.5618536)
(318.96714 1.9230771e-17 0.97617966)
(320.11585 3.0432292e-17 0.57156328)
(319.88437 2.5258337e-18 0.18455559)
(320.98797 1.0152063e-17 -0.58253839)
(320.72236 -5.6209252e-18 -1.0587867)
(321.81287 1.701079e-17 -1.8560053)
(321.60968 -8.6717902e-17 -2.2660431)
(322.44417 1.1653549e-17 -3.185457)
(322.31702 5.6675301e-17 -3.6809067)
(322.75171 -4.0858114e-17 -4.4277885)
(322.7837 -4.8263894e-17 -4.9973548)
(322.57717 6.9269718e-17 -5.4068428)
(322.80227 8.8736393e-18 -6.1384177)
(321.83994 -2.9147526e-17 -5.9423915)
(322.27976 6.0020237e-17 -6.8321535)
(320.55327 -1.1780338e-16 -5.9424339)
(321.17376 -2.2308248e-16 -6.9741233)
(318.84266 2.3558288e-16 -5.4321468)
(319.58381 -3.2146791e-19 -6.5324849)
(316.89254 3.0968865e-16 -4.5415653)
(317.68015 1.3161744e-16 -5.634211)
(314.89455 2.2896159e-17 -3.446577)
(315.66355 6.363657e-18 -4.4563071)
(313.00002 -7.3235448e-18 -2.3184743)
(313.70644 1.1131517e-17 -3.1967601)
(311.29653 2.4169546e-18 -1.2792468)
(311.92187 -2.6777642e-16 -2.0098052)
(309.83365 1.583671e-16 -0.3993004)
(310.35804 -7.0014666e-20 -0.96787322)
(308.61139 4.0371165e-16 0.27480003)
(309.05921 -4.9154332e-16 -0.14223132)
(307.60679 1.0729141e-16 0.7482852)
(307.96787 -1.0899607e-17 0.45930037)
(306.80533 -2.1747897e-16 1.042131)
(307.09922 1.7524386e-16 0.85854692)
(306.18206 0 1.1883789)
(306.40383 -2.4987163e-16 1.0897854)
(305.71091 -2.4864347e-16 1.2082989)
(305.886 4.0795085e-16 1.1789179)
(305.35739 -5.1987447e-16 1.1365033)
(305.48281 -2.8992806e-16 1.1464589)
(305.1072 3.3932212e-17 0.99120214)
(305.19669 -2.1997848e-16 1.0502212)
(304.95606 7.8263136e-16 0.74599787)
(304.99961 3.2281233e-16 0.87681851)
(304.83653 5.1834372e-16 0.38872402)
(304.90565 -4.9382619e-18 0.54526108)
(304.7969 -1.0373706e-19 0.30671563)
(304.72567 -1.133451e-19 0.1081466)
(304.75848 0 0.082354514)
(304.64578 7.8953877e-18 -0.22212183)
(304.75569 0 -0.19241226)
(304.66852 5.8053746e-18 -0.376112)
(304.79806 -1.8671828e-16 -0.52221212)
(304.76791 2.5741341e-16 -0.3778454)
(304.99021 -2.3273381e-16 -0.48652041)
(304.90962 -2.051321e-16 -0.34393373)
(305.08381 1.5512891e-16 -0.67822364)
(204.80353 3.1081018e-17 3.5392022)
(190.1753 2.9970591e-17 2.6141003)
(232.99174 -1.5446917e-17 3.9501886)
(223.36918 7.5238506e-21 3.381012)
(254.29006 -1.7694858e-17 4.2057802)
(245.64755 -1.6790298e-17 3.5668451)
(274.73665 1.1073962e-17 4.396949)
(265.98455 8.9840165e-19 3.7824839)
(296.27121 2.1221286e-18 4.5274242)
(286.86198 2.4045001e-17 3.7581027)
(310.63637 -1.1943301e-17 4.5192881)
(309.28841 -1.9300462e-17 4.0826394)
(314.43025 0 4.5099109)
(313.24522 2.4170167e-18 3.4027482)
(314.89626 -8.9225702e-18 4.4464886)
(316.09633 0 4.4143368)
(314.46815 -1.0713948e-17 4.358706)
(313.68977 -2.9531919e-18 2.9201661)
(314.91057 -2.3248042e-20 4.2623168)
(315.62745 -8.4373607e-18 4.4736871)
(314.76471 -3.4642303e-18 4.1369708)
(314.28547 9.3718224e-18 2.5923534)
(315.15099 -1.0286519e-17 3.9929773)
(315.56957 -1.1599175e-17 4.2134503)
(315.20147 -2.2279288e-18 3.8050696)
(314.89176 -9.6459275e-19 2.3649139)
(315.61106 6.1854573e-18 3.5869531)
(315.83282 -6.0268653e-18 3.6660244)
(315.84895 1.3554724e-17 3.3063126)
(315.61977 1.1424339e-18 2.0868319)
(316.33338 3.896932e-17 2.9751151)
(316.40571 1.4814904e-17 2.863326)
(316.75427 1.5389259e-17 2.5548702)
(316.54435 1.5083848e-17 1.587117)
(317.36211 -1.2325423e-17 2.0529863)
(317.3103 -1.8362908e-17 1.784646)
(317.97474 4.2730875e-17 1.4260862)
(317.74494 4.4197399e-18 0.68487165)
(318.73458 7.1346445e-17 0.67617197)
(318.57497 4.418665e-17 0.32751638)
(319.52524 2.739455e-17 -0.23681204)
(319.26162 2.4917551e-17 -0.79844204)
(320.40032 -3.2159415e-17 -1.3044459)
(320.17236 0 -1.6688187)
(321.25172 -9.3736983e-17 -2.5357128)
(320.99728 -3.5216901e-17 -2.9868866)
(322.03602 -6.0307166e-17 -3.8766913)
(321.84941 -5.8119115e-18 -4.2697333)
(322.60399 7.1539118e-18 -5.2475762)
(322.50186 1.3695644e-17 -5.7361459)
(322.82388 -4.5088404e-18 -6.4846121)
(322.88467 8.8806246e-17 -7.0665636)
(322.54752 -4.9509171e-18 -7.3926992)
(322.79955 1.5711638e-16 -8.156316)
(321.71204 -1.043657e-16 -7.7865204)
(322.16773 -1.3536744e-16 -8.7272964)
(320.35066 -1.2866261e-16 -7.585938)
(320.97107 3.2885007e-18 -8.6813365)
(318.59988 -1.1611533e-16 -6.8406229)
(319.32493 -1.1010873e-17 -8.0109545)
(316.6438 -1.5574218e-16 -5.7078399)
(317.40394 -4.1207937e-16 -6.8699868)
(314.66556 -5.7593894e-18 -4.3854876)
(315.40142 -2.8206218e-17 -5.4592608)
(312.80533 -2.1801857e-16 -3.058033)
(313.47833 2.1906646e-17 -3.9923693)
(311.14068 -2.9863828e-16 -1.8511966)
(311.73568 2.1897503e-17 -2.6299789)
(309.71613 -5.9293267e-16 -0.83395615)
(310.21367 -1.3162655e-17 -1.4421846)
(308.52854 -9.5613785e-16 -0.051068451)
(308.95485 -3.0981178e-16 -0.49962999)
(307.55179 3.6347314e-17 0.5064282)
(307.89647 -2.0525929e-17 0.19243591)
(306.77129 1.9027538e-16 0.8644993)
(307.0532 3.686961e-16 0.66122563)
(306.16316 8.2994985e-17 1.0592333)
(306.37626 1.0213365e-17 0.94555033)
(305.70204 4.4588195e-16 1.1146159)
(305.87178 1.1048772e-17 1.0741146)
(305.35429 1.7527236e-18 1.0692035)
(305.47614 -6.1066045e-16 1.0695564)
(305.10797 6.4395432e-18 0.944149)
(305.19524 -4.2660167e-16 0.99744888)
(304.9574 -4.2833379e-16 0.71219075)
(305.00192 3.0162635e-16 0.83908344)
(304.85022 -5.2560103e-16 0.42857545)
(304.89889 -4.647251e-16 0.5084685)
(304.78378 6.9186898e-18 0.2805015)
(304.71035 3.4302405e-16 0.076344596)
(304.74876 1.7234374e-17 0.044789271)
(304.64276 7.9436563e-18 -0.23317807)
(304.7558 2.3896943e-16 -0.2040063)
(304.67105 5.8543329e-18 -0.37495121)
(304.80712 2.9539284e-16 -0.48082083)
(304.77326 -1.9167634e-17 -0.3672775)
(304.99019 1.4665334e-16 -0.46851147)
(304.91027 9.6515907e-18 -0.33142842)
(305.08491 3.1231202e-16 -0.65238363)
(205.64007 2.0449583e-18 2.6676843)
(190.92258 1.6322972e-17 1.7450057)
(234.02203 0 2.9567546)
(224.32992 0 2.4463939)
(255.50491 0 3.1188637)
(246.77397 0 2.4995953)
(276.21451 1.1770317e-17 3.2187419)
(267.32153 1.9244404e-18 2.6478693)
(297.83953 6.48741e-18 3.2448318)
(288.55075 1.2786044e-17 2.4864817)
(311.52832 -6.9618333e-18 3.1713471)
(310.70708 -1.1163758e-17 2.7623885)
(314.65052 2.6056988e-18 3.1370096)
(313.43936 2.3682033e-18 1.9919714)
(315.10446 6.0648217e-18 3.063226)
(316.32929 0 3.0691194)
(314.66951 -2.9928081e-19 2.9666646)
(313.87809 2.3058536e-18 1.469668)
(315.12131 -6.4966734e-19 2.857743)
(315.86206 -1.8077515e-18 3.1148565)
(314.96931 3.0694916e-18 2.7180079)
(314.48994 3.8002388e-18 1.1218451)
(315.36817 -3.3239853e-18 2.5572676)
(315.80497 -8.1973683e-18 2.8149838)
(315.43175 -4.2811015e-18 2.348753)
(315.1199 6.4258336e-18 0.87270166)
(315.85352 -1.1527437e-17 2.1063519)
(316.08023 -8.5757473e-18 2.2115794)
(316.09938 1.2812272e-18 1.7968764)
(315.86805 -1.2922509e-17 0.5617262)
(316.59463 -8.5817513e-18 1.4321331)
(316.66605 -1.3641537e-17 1.3369208)
(317.02556 -1.5242597e-17 0.97172216)
(316.81366 -1.2713622e-17 0.0059072096)
(317.64275 -3.8155112e-18 0.4227908)
(317.58762 -8.0970405e-18 0.16765145)
(318.26363 2.5728477e-18 -0.25955866)
(318.03367 6.814922e-18 -0.98616268)
(319.02748 2.8174758e-19 -1.0731021)
(318.86673 -2.7080722e-17 -1.405841)
(319.8175 1.4796753e-19 -2.0570139)
(319.55811 -3.6036357e-17 -2.5966391)
(320.68078 0 -3.2000554)
(320.4584 -3.3533104e-17 -3.5452378)
(321.50625 4.8591439e-17 -4.5047259)
(321.26457 -4.6459142e-18 -4.9349249)
(322.24233 6.5164867e-17 -5.9065238)
(322.07381 6.1395279e-17 -6.288229)
(322.7369 8.7318644e-17 -7.3077939)
(322.6611 -4.6928411e-17 -7.7964924)
(322.85789 2.4171484e-16 -8.5237839)
(322.94829 8.8033728e-17 -9.1256637)
(322.46986 5.5823002e-17 -9.3427464)
(322.74836 1.5573377e-16 -10.144739)
(321.53018 -4.2291318e-17 -9.5787389)
(321.99992 1.2648399e-16 -10.573945)
(320.09304 1.2081644e-16 -9.1677249)
(320.7104 3.2037618e-16 -10.326502)
(318.30543 -2.6379888e-16 -8.1855345)
(319.01079 3.3735989e-19 -9.4221134)
(316.34955 -3.2465556e-16 -6.8153738)
(317.07849 -2.8179054e-16 -8.0411365)
(314.39841 -5.8547978e-18 -5.2744216)
(315.09764 -2.8616537e-17 -6.4056022)
(312.57973 2.599007e-16 -3.7576217)
(313.21631 2.220042e-17 -4.741754)
(310.96044 3.088889e-16 -2.392552)
(311.52253 2.7708901e-16 -3.2142447)
(309.57984 3.0032692e-16 -1.2458944)
(310.04826 4.354465e-16 -1.8894343)
(308.4316 5.8909628e-16 -0.36063814)