/*--------------------------------*- C++ -*----------------------------------*\
  =========                 |
  \\      /  F ield         | OpenFOAM: The Open Source CFD Toolbox
   \\    /   O peration     | Website:  https://openfoam.org
    \\  /    A nd           | Version:  8
     \\/     M anipulation  |
\*---------------------------------------------------------------------------*/
FoamFile
{
    version     2.0;
    format      ascii;
    class       volScalarField;
    location    "0.10999";
    object      T;
}
// * * * * * * * * * * * * * * * * * * * * * * * * * * * * * * * * * * * * * //

dimensions      [0 0 0 1 0 0 0];

internalField   nonuniform List<scalar> 
20000
(
276.76999
276.35666
275.35586
273.39816
269.72303
262.88152
256.61237
255.47617
256.44698
256.17766
256.87638
256.85232
257.444
257.63126
258.23748
258.64602
259.34496
260.00307
260.89985
261.87623
263.08884
264.48288
266.15001
268.09202
270.34684
272.90487
275.72517
278.70928
281.70817
284.56071
287.13283
289.35156
291.19792
292.70213
293.90513
294.85079
295.59327
296.16187
296.59827
296.92634
297.18994
297.40269
297.57601
297.71991
297.88628
298.06034
298.22603
298.32125
298.25554
298.2382
276.59282
276.11701
275.06314
273.01097
269.18696
261.99148
256.29986
255.32812
256.33415
256.05804
256.77328
256.74479
257.35184
257.55214
258.16526
258.58495
259.29545
259.96675
260.86649
261.85002
263.06693
264.47201
266.14662
268.09767
270.35868
272.9227
275.74641
278.73222
281.73108
284.5826
287.15295
289.37021
291.21685
292.71884
293.91728
294.85709
295.59707
296.16398
296.59929
296.92638
297.18986
297.40336
297.57759
297.72146
297.89575
298.1165
298.24713
298.29446
298.26878
298.22093
276.49881
275.98672
274.87813
272.73956
268.76565
261.20698
256.1057
255.24962
256.27318
255.99387
256.72791
256.69918
257.31279
257.51286
258.12756
258.55422
259.26798
259.94917
260.85865
261.85953
263.09153
264.52689
266.23332
268.21598
270.50395
273.08777
275.92228
278.90677
281.89472
284.72896
287.28056
289.4781
291.30509
292.78904
293.97227
294.89846
295.62727
296.18583
296.61527
296.93813
297.19983
297.41218
297.58387
297.72708
297.92005
298.1261
298.24768
298.29889
298.26611
298.2185
276.43747
275.88489
274.72168
272.49322
268.36316
260.4671
255.99029
255.23344
256.25852
255.97482
256.71453
256.68886
257.31392
257.51669
258.13459
258.56945
259.28952
259.99253
260.92609
261.96309
263.22796
264.69319
266.42446
268.43357
270.74371
273.34487
276.18577
279.1627
282.12904
284.93226
287.44981
289.61462
291.41283
292.87206
294.03464
294.94329
295.65912
296.20827
296.63113
296.94928
297.20879
297.41996
297.58937
297.73263
297.94556
298.14687
298.25347
298.29578
298.26703
298.21104
276.42992
275.82514
274.60549
272.27994
267.97751
259.77439
255.92883
255.223
256.25601
255.96222
256.72137
256.68693
257.35041
257.56395
258.19673
258.65481
259.39405
260.12349
261.07668
262.14133
263.43133
264.92986
266.69358
268.73679
271.07662
273.70035
276.54949
279.51562
282.45228
285.21281
287.68306
289.80197
291.55916
292.98406
294.11889
295.00465
295.70302
296.23947
296.65338
296.96519
297.2215
297.43047
297.59673
297.74162
297.97261
298.15885
298.25674
298.29624
298.26593
298.20517
276.3788
275.76507
274.50761
272.0886
267.60357
259.15125
255.93449
255.2724
256.32249
256.04526
256.80273
256.79557
257.44856
257.67813
258.32404
258.80105
259.55445
260.3085
261.28295
262.37886
263.69825
265.23211
267.02966
269.10903
271.48099
274.12925
276.98638
279.93852
282.83894
285.54767
287.96014
290.02311
291.73086
293.11467
294.21642
295.07526
295.75338
296.27515
296.67869
296.98317
297.23558
297.44179
297.60513
297.75456
297.99795
298.17196
298.26058
298.2959
298.26505
298.19792
276.43437
275.78848
274.47915
271.95513
267.25547
258.63378
256.01359
255.38211
256.44152
256.16034
256.93222
256.92759
257.59009
257.83624
258.49374
258.99147
259.76033
260.54011
261.53575
262.66267
264.01213
265.58432
267.42077
269.54146
271.95059
274.62664
277.49235
280.4277
283.2861
285.93519
288.28098
290.27916
291.92942
293.2656
294.32916
295.15708
295.81184
296.31665
296.70819
297.00421
297.25189
297.45453
297.6153
297.77352
298.02095
298.18264
298.26406
298.29692
298.26294
298.19062
276.48203
275.81133
274.46415
271.83694
266.89692
258.18224
256.1447
255.51493
256.59675
256.31204
257.10073
257.1073
257.77219
258.03108
258.69892
259.21664
260.00005
260.80593
261.82428
262.98488
264.36783
265.98151
267.86012
270.02559
272.47514
275.18079
278.05454
280.96997
283.78124
286.36426
288.63633
290.56283
292.14949
293.43294
294.45417
295.24788
295.87676
296.3628
296.74103
297.02766
297.26984
297.46815
297.62699
297.79843
298.04137
298.19286
298.26739
298.29811
298.2597
298.18318
276.56015
275.86587
274.47952
271.74667
266.52633
257.79712
256.30572
255.68092
256.77867
256.49086
257.29371
257.30167
257.97783
258.25227
258.93062
259.46969
260.26867
261.10229
262.1452
263.3415
264.76059
266.41881
268.34354
270.55759
273.05084
275.78733
278.66781
281.55957
284.31852
286.82958
289.02189
290.87092
292.38879
293.6152
294.59055
295.34715
295.94787
296.41345
296.77716
297.05354
297.28948
297.48258
297.63999
297.8268
298.06124
298.20256
298.27041
298.29902
298.25582
298.17601
276.63704
275.92824
274.50418
271.6695
266.13101
257.47481
256.49149
255.86822
256.98247
256.69315
257.50704
257.52393
258.20766
258.49763
259.18629
259.74751
260.56282
261.42574
262.49512
263.72947
265.18765
266.89334
268.8674
271.13301
273.67217
276.43958
279.32436
282.18815
284.88966
287.32362
289.4313
291.19842
292.6436
293.80967
294.73638
295.45351
296.0242
296.46795
296.81615
297.08155
297.31058
297.49758
297.65384
297.85692
298.08122
298.21257
298.27334
298.29928
298.25168
298.16924
276.74785
276.01353
274.54886
271.61116
265.71416
257.22062
256.70263
256.07697
257.20446
256.91525
257.73723
257.76428
258.45644
258.76355
259.46299
260.04788
260.88082
261.77486
262.87298
264.14765
265.6477
267.40369
269.43038
271.75034
274.33702
277.1344
280.01998
282.8507
285.48935
287.84127
289.8601
291.54169
292.91113
294.01433
294.89022
295.56596
296.10507
296.52582
296.85768
297.11151
297.33298
297.51302
297.66817
297.8873
298.10148
298.22332
298.27642
298.29904
298.24731
298.16299
276.86115
276.10051
274.59545
271.55963
265.27275
257.02749
256.92951
256.30126
257.44041
257.15468
257.98533
258.02382
258.72389
259.04918
259.75983
260.36979
261.22175
262.14872
263.27753
264.59459
266.13924
267.9482
270.03046
272.40699
275.04186
277.8671
280.74894
283.54087
286.11122
288.37665
290.3032
291.89662
293.18823
294.22685
295.05038
295.68328
296.18962
296.58649
296.90138
297.14316
297.35649
297.52884
297.68289
297.91693
298.12133
298.23464
298.28053
298.29844
298.24268
298.15729
276.98265
276.19301
274.64458
271.513
264.81218
256.89492
257.17398
256.54298
257.69119
257.41126
258.24937
258.30042
259.00844
259.35333
260.07595
260.71258
261.58507
262.54662
263.70836
265.06999
266.66207
268.52672
270.66744
273.10244
275.78533
278.63521
281.50771
284.25442
286.75078
288.92542
290.75674
292.25998
293.47232
294.44529
295.21543
295.80443
296.27708
296.64944
296.94691
297.17625
297.38089
297.54509
297.69839
297.94507
298.13986
298.24603
298.28646
298.29536
298.23783
298.15215
277.11149
276.29006
274.69183
271.46743
264.34223
256.83321
257.43267
256.79955
257.95631
257.68313
258.52855
258.5937
259.3097
259.67575
260.41106
261.07598
261.97043
262.96822
264.16484
265.57312
267.21542
269.13836
271.34019
273.83493
276.56468
279.43478
282.29141
284.98604
287.40277
289.48278
291.21656
292.62833
293.76071
294.6676
295.38384
295.92827
296.36666
296.7141
296.99388
297.21054
297.40598
297.56193
297.71563
297.9714
298.15674
298.25681
298.29506
298.29044
298.23295
298.14751
277.25489
276.39386
274.7349
271.41317
263.86758
256.83457
257.70388
257.07014
258.23492
257.9702
258.82259
258.90327
259.62748
260.01616
260.76505
261.45966
262.37753
263.41312
264.64692
266.10418
267.79965
269.78358
272.04898
274.60425
277.37867
280.26349
283.09676
285.73199
288.0634
290.04515
291.67948
292.99896
294.05123
294.8921
295.55431
296.05381
296.45762
296.77997
297.04195
297.24577
297.43166
297.57966
297.73591
297.99567
298.172
298.26632
298.30253
298.28428
298.22817
298.14331
277.40925
276.5023
274.77223
271.34474
263.40156
256.90047
257.98814
257.35549
258.52745
258.27238
259.13139
259.22912
259.96167
260.37453
261.13774
261.86345
262.80613
263.88107
265.15439
266.66297
268.41457
270.46204
272.79316
275.40889
278.22467
281.11751
283.91926
286.48758
288.72824
290.60855
292.14206
293.36907
294.34163
295.11705
295.72552
296.18003
296.54921
296.84654
297.09079
297.28168
297.45783
297.59851
297.75997
298.01792
298.18569
298.27398
298.30817
298.27854
298.22362
298.13946
277.57835
276.62195
274.80583
271.2531
262.95901
257.02729
258.2847
257.6547
258.83324
258.58938
259.45473
259.57111
260.31229
260.75065
261.52899
262.28691
263.25602
264.37214
265.68765
267.25015
269.06093
271.17453
273.57319
276.24865
279.10123
281.99432
284.75569
287.24943
289.39403
291.17002
292.60174
293.7365
294.63018
295.34106
295.89636
296.30608
296.6408
296.91335
297.14008
297.31797
297.48434
297.61859
297.78701
298.03911
298.19808
298.27989
298.31089
298.27303
298.21932
298.13587
277.75958
276.75021
274.8332
271.12525
262.55088
257.20684
258.59339
257.96766
259.15227
258.92134
259.79276
259.92932
260.67912
261.14427
261.93836
262.72997
263.72728
264.88645
266.24693
267.86593
269.7389
271.92099
274.38855
277.12189
280.00548
282.88997
285.60172
288.01331
290.05693
291.72626
293.05576
294.09901
294.91512
295.56271
296.0657
296.43107
296.73172
296.97996
297.18954
297.35439
297.5109
297.63995
297.81658
298.0596
298.20909
298.28429
298.3122
298.26781
298.21525
298.1325
277.95736
276.89499
274.86212
270.95632
262.19442
257.43474
258.9154
258.29513
259.485
259.26839
260.1453
260.30335
261.06182
261.5549
262.36578
263.19246
264.22011
265.42454
266.83302
268.51124
270.44946
272.70241
275.23968
278.02801
280.93551
283.80169
286.45418
288.77612
290.71415
292.27486
293.50209
294.45495
295.19509
295.7809
296.23265
296.55429
296.82143
297.04598
297.23889
297.39075
297.53731
297.66246
297.84859
298.07963
298.21843
298.28705
298.313
298.26291
298.21135
298.12929
278.16608
277.05162
274.89097
270.73367
261.89716
257.68905
259.25027
258.63632
259.83067
259.62999
260.51181
260.69271
261.45987
261.98231
262.81117
263.67479
264.73505
265.98693
267.44647
269.18658
271.19302
273.51892
276.12588
278.96496
281.88796
284.72537
287.30885
289.53399
291.36237
292.8131
293.93856
294.80256
295.46869
295.99452
296.39634
296.67505
296.90938
297.11104
297.28786
297.42682
297.56344
297.686
297.88295
298.0995
298.22631
298.28797
298.31338
298.25825
298.20754
298.12623
278.38609
277.22207
274.9258
270.45232
261.66838
257.99364
259.59783
258.99114
260.18909
260.00566
260.89172
261.09688
261.87316
262.4266
263.27501
264.17732
265.27269
266.57446
268.08827
269.89306
271.97079
274.3715
277.04729
279.93154
282.86041
285.65793
288.16259
290.28406
291.99922
293.33904
294.36363
295.14056
295.73482
296.2028
296.55615
296.79281
296.99514
297.17481
297.3362
297.46242
297.58918
297.71054
297.91905
298.11953
298.23374
298.28805
298.31266
298.25373
298.20368
298.1233
278.61834
277.40729
274.97043
270.10879
261.51344
258.33475
259.95703
259.35778
260.55875
260.39456
261.2847
261.51582
262.30198
262.88822
263.75786
264.70075
265.8338
267.18787
268.75916
270.63142
272.78336
275.26024
278.00274
280.9251
283.84904
286.59508
289.01133
291.02287
292.62187
293.85052
294.77559
295.46757
295.99232
296.40504
296.71152
296.90701
297.07831
297.23701
297.38365
297.49735
297.61464
297.7363
297.95572
298.13963
298.24147
298.2877
298.30958
298.24868
298.19966
298.12049
278.86217
277.60753
275.02656
269.70184
261.43501
258.70624
260.32818
259.73744
260.94
260.79691
261.69092
261.95013
262.74699
263.36782
264.26035
265.24565
266.41919
267.82815
269.46032
271.40296
273.63205
276.18589
278.99182
281.94371
284.85088
287.5335
289.85197
291.74784
293.22838
294.34608
295.17332
295.78264
296.24046
296.60088
296.86205
297.01716
297.15859
297.2974
297.42998
297.53142
297.64004
297.764
297.99118
298.15885
298.24918
298.2872
298.30447
298.24294
298.19548
298.11779
279.11521
277.82151
275.0955
269.24133
261.43508
259.0515
260.71103
260.12985
261.33335
261.21304
262.11119
262.40047
263.20886
263.86591
264.78309
265.8128
267.02979
268.49629
270.1927
272.20867
274.5175
277.14822
280.01263
282.98393
285.86153
288.46873
290.68058
292.45585
293.81647
294.82411
295.55555
296.08486
296.47881
296.78995
297.00718
297.12274
297.2357
297.35575
297.47497
297.5644
297.66566
297.79476
298.02337
298.17608
298.25644
298.28837
298.29698
298.23666
298.19122
298.11517
279.37429
278.0404
275.16734
268.73173
261.50718
259.42754
261.10465
260.53414
261.73916
261.64481
262.54634
262.86748
263.68796
264.3829
265.32674
266.40301
267.66667
269.19349
270.95769
273.05005
275.44104
278.14751
281.06386
284.04291
286.87741
289.39722
291.49413
293.14463
294.38472
295.28368
295.92155
296.37392
296.70791
296.97194
297.14625
297.22331
297.30938
297.41191
297.51844
297.59618
297.6916
297.82884
298.05129
298.19108
298.26273
298.29114
298.28815
298.23022
298.18697
298.11259
279.64557
278.27332
275.24656
268.18526
261.65532
259.81575
261.51055
260.95205
262.15782
262.09169
262.99687
263.35118
264.18466
264.91928
265.8922
267.0174
268.331
269.92092
271.75651
273.9283
276.40319
279.18285
282.14264
285.11636
287.8937
290.31447
292.2889
293.81156
294.93149
295.72376
296.27063
296.64972
296.92867
297.1461
297.27829
297.31863
297.37929
297.46577
297.56028
297.62669
297.71771
297.86412
298.07603
298.204
298.26771
298.29271
298.27809
298.22389
298.18278
298.11004
279.9264
278.51465
275.32297
267.62378
261.87218
260.22029
261.92801
261.38316
262.59011
262.55336
263.46223
263.85193
264.69949
265.47593
266.4805
267.65702
269.02399
270.68002
272.59079
274.84514
277.40497
280.25369
283.2466
286.20065
288.90642
291.2169
293.06219
294.45515
295.456
296.14378
296.6027
296.91266
297.14175
297.31138
297.4028
297.40891
297.44508
297.5173
297.60035
297.65595
297.74378
297.89932
298.09794
298.21468
298.27179
298.29331
298.26899
298.2178
298.17867
298.10749
280.21376
278.76286
275.38955
267.06252
262.15272
260.63932
262.35854
261.82864
263.03673
263.03062
263.94275
264.37019
265.23346
266.05392
267.09288
268.3231
269.74695
271.47221
273.46207
275.80178
278.44637
281.35802
284.37171
287.2907
289.91046
292.10014
293.81113
295.07403
295.95725
296.54281
296.91768
297.16315
297.34547
297.46649
297.52014
297.49474
297.50663
297.56644
297.63856
297.68393
297.76964
297.93386
298.11739
298.22281
298.27358
298.29354
298.26053
298.21205
298.1746
298.10491
280.51195
279.02569
275.44396
266.52705
262.49066
261.07299
262.80144
262.28847
263.49768
263.52417
264.43956
264.90669
265.78776
266.65441
267.73054
269.01677
270.50133
272.29934
274.37235
276.79987
279.52769
282.49413
285.51451
288.3822
290.90164
292.96107
294.5345
295.66816
296.43474
296.92008
297.21572
297.40159
297.53727
297.6112
297.63066
297.57666
297.56444
297.61309
297.67485
297.71055
297.79544
297.96756
298.13471
298.22903
298.27413
298.29355
298.25268
298.20654
298.17054
298.1023
280.80983
279.2943
275.46986
266.03734
262.85703
261.51938
263.25674
262.76287
263.97376
264.03487
264.95368
265.46308
266.36343
267.2785
268.3946
269.73936
271.2888
273.1633
275.32339
277.84027
280.64789
283.65859
286.66986
289.4694
291.87489
293.79658
295.23159
296.2371
296.88725
297.27472
297.49648
297.62737
297.71482
297.74703
297.73424
297.65391
297.61978
297.65701
297.7092
297.73544
297.82188
298.00015
298.15034
298.23397
298.27377
298.29332
298.2453
298.20119
298.16644
298.09963
281.10728
279.57432
275.46333
265.63001
263.26569
261.97989
263.72598
263.25312
264.46522
264.56237
265.48727
266.04058
266.96161
267.92696
269.0862
270.49248
272.11138
274.06643
276.31726
278.92412
281.80602
284.84833
287.83314
290.54753
292.82661
294.60552
295.90294
296.77963
297.31343
297.60716
297.75965
297.83872
297.87878
297.87813
297.83026
297.72416
297.6739
297.6979
297.74174
297.76031
297.85018
298.03112
298.16455
298.23801
298.27283
298.29118
298.23831
298.19591
298.16223
298.09691
281.39998
279.86425
275.41636
265.28512
263.70217
262.45484
264.20934
263.75983
264.97273
265.10826
266.03969
266.63949
267.58328
268.60065
269.80688
271.27813
272.9714
275.01096
277.35556
280.05134
282.99958
286.0584
288.99824
291.61079
293.75308
295.38715
296.54739
297.29194
297.71241
297.91805
298.00524
298.03505
298.03313
298.00175
297.9186
297.78899
297.72606
297.73572
297.77269
297.78559
297.8815
298.05956
298.17756
298.2408
298.26979
298.2872
298.23161
298.1906
298.15789
298.09412
281.68528
280.16298
275.327
265.0165
264.16491
262.94475
264.70702
264.28337
265.49686
265.67286
266.61221
267.26028
268.22946
269.30089
270.55859
272.09876
273.87143
275.99939
278.44
281.22198
284.22607
287.28429
290.15979
292.65487
294.65261
296.14191
297.161
297.77237
298.08321
298.20813
298.23474
298.21769
298.17937
298.11724
297.99927
297.8487
297.7757
297.77096
297.80215
297.81279
297.91581
298.08438
298.18934
298.24303
298.26546
298.28148
298.22505
298.18517
298.15339
298.09125
281.95801
280.4589
275.19263
264.82932
264.64782
263.44921
265.21921
264.82441
266.03842
266.25744
267.20575
267.90362
268.90106
270.02966
271.3439
272.95711
274.81407
277.03383
279.57145
282.43452
285.48114
288.51965
291.31132
293.67517
295.52391
296.8678
297.73902
298.21836
298.42639
298.47923
298.44979
298.38818
298.31624
298.22467
298.0729
297.90379
297.82137
297.80463
297.82997
297.83817
297.95036
298.10659
298.19945
298.24532
298.26262
298.27425
298.21818
298.17961
298.14875
298.08831
282.21472
280.75739
275.01898
264.72237
265.15041
263.96996
265.74763
265.38403
266.59818
266.86278
267.82155
268.57049
269.60022
270.78954
272.16574
273.85607
275.80196
278.11648
280.75071
283.68733
286.76054
289.75875
292.44767
294.66924
296.3672
297.55921
298.2787
298.6296
298.74654
298.73362
298.64897
298.54695
298.44452
298.32433
298.14011
297.9546
297.86213
297.83723
297.85606
297.86341
297.98416
298.12615
298.20776
298.24701
298.26099
298.26596
298.21122
298.17401
298.144
298.0853
282.45359
281.0574
274.81644
264.71037
265.6751
264.50825
266.29231
265.96278
267.17632
267.48939
268.46051
269.26342
270.33009
271.58358
273.02716
274.79847
276.83749
279.24894
281.97731
284.97694
288.05806
290.99441
293.56322
295.63478
297.18027
298.2098
298.77695
299.00945
299.04816
298.96846
298.83352
298.6946
298.56426
298.41646
298.20117
298.001
297.89895
297.86795
297.88076
297.88838
298.01628
298.14322
298.21462
298.24861
298.25994
298.25759
298.20437
298.16843
298.13914
298.08223
282.67534
281.35456
274.59537
264.79722
266.21864
265.06387
266.85238
266.56141
267.77399
268.13907
269.12533
269.98528
271.09369
272.4148
273.93108
275.78709
277.92309
280.43279
283.25065
286.29973
289.36785
292.22065
294.65437
296.5713
297.95657
298.81628
299.23438
299.36595
299.32781
299.1855
299.00386
298.83176
298.67592
298.50131
298.25635
298.0431
297.93239
297.89615
297.90464
297.91279
298.04616
298.15802
298.22006
298.24949
298.25916
298.24915
298.19765
298.16283
298.13418
298.0791
282.88107
281.6394
274.36434
264.97863
266.77851
265.6368
267.42818
267.18223
268.39416
268.81455
269.81917
270.73921
271.89389
273.28623
274.88036
276.82462
279.06082
281.66868
284.56832
287.65002
290.68225
293.43077
295.71748
297.47655
298.68846
299.37534
299.65696
299.69966
299.58567
299.38496
299.16083
298.95894
298.77966
298.57887
298.30604
298.08124
297.96298
297.92163
297.92804
297.93758
298.07306
298.17069
298.22438
298.24964
298.25848
298.24085
298.19107
298.15724
298.12911
298.07595
283.07116
281.90383
274.14312
265.25138
267.35625
266.23001
268.02416
267.82739
269.03999
269.5192
270.54506
271.52803
272.7338
274.20069
275.87779
277.91364
280.25285
282.95692
285.92773
289.02203
291.99463
294.61977
296.75099
298.34461
299.37108
299.88728
300.05313
300.00822
299.82253
299.56796
299.30518
299.07678
298.87586
298.64914
298.3507
298.11551
297.99078
297.9454
297.95106
297.96436
298.09611
298.1813
298.22788
298.24927
298.25758
298.23315
298.18479
298.15165
298.12395
298.07278
283.24997
282.14021
273.95177
265.61174
267.95497
266.8477
268.64389
268.50081
269.7147
270.25567
271.30552
272.35439
273.61644
275.16118
276.92607
279.05678
281.50061
284.29647
287.32394
290.40809
293.29707
295.78259
297.75249
299.16635
300.00068
300.35872
300.42309
300.29158
300.03926
299.73526
299.43765
299.18576
298.96473
298.71225
298.39048
298.14604
298.01614
297.96802
297.97384
297.99258
298.115
298.18966
298.23
298.24863
298.25638
298.22582
298.17874
298.14611
298.11875
298.06959
283.4289
282.3434
273.81006
266.05289
268.57877
267.49524
269.28916
269.20499
270.42048
271.02571
272.10292
273.22125
274.54492
276.1705
278.02787
280.25678
282.80544
285.68577
288.7517
291.80091
294.58343
296.91619
298.71778
299.93454
300.57646
300.79901
300.76458
300.55089
300.237
299.88787
299.55908
299.28649
299.04666
298.76861
298.42537
298.17308
298.03948
297.98988
297.99617
298.01908
298.13143
298.1962
298.23075
298.24683
298.25472
298.21873
298.17294
298.14071
298.11358
298.06638
283.619
282.50766
273.73219
266.54747
269.23064
268.17359
269.96251
269.94067
271.15856
271.83104
272.94005
274.13186
275.52222
277.2315
279.18609
281.51611
284.16766
287.12114
290.20354
293.19174
295.84719
298.01727
299.63642
300.6448
301.10399
301.21007
301.07706
300.78716
300.41674
300.02667
299.67018
299.37946
299.12186
298.81825
298.45549
298.19701
298.06121
298.01111
298.01786
298.04622
298.14573
298.20152
298.23085
298.24421
298.25259
298.21183
298.16731
298.13553
298.10863
298.06311
283.81592
282.62693
273.74035
267.0566
269.90778
268.88175
270.66413
270.70942
271.93133
272.67464
273.82022
275.08893
276.55139
278.34727
280.40387
282.83724
285.58693
288.59815
291.67199
294.57317
297.08373
299.08305
300.49912
301.29468
301.5938
301.58941
301.36205
301.00178
300.57969
300.15267
299.77179
299.46526
299.19065
298.86121
298.48116
298.21824
298.08164
298.03173
298.03877
298.06981
298.15832
298.20608
298.23069
298.24097
298.24981
298.20508
298.16166
298.13055
298.10419
298.05975
284.0258
282.69286
273.82786
267.65871
270.60657
269.62084
271.39508
271.51441
272.74273
273.56063
274.74776
276.09399
277.63523
279.52165
281.68452
284.22174
287.06086
290.10984
293.1476
295.93704
298.2879
300.10385
301.29943
301.88684
302.05153
301.93542
301.62069
301.19593
300.7269
300.26675
299.86457
299.54429
299.25325
298.89772
298.50282
298.23722
298.10096
298.05158
298.05864
298.0915
298.16907
298.20972
298.23049
298.23831
298.24548
298.19847
298.15608
298.12585
298.10011
298.0564
284.2479
282.7204
274.00723
268.36608
271.33154
270.39731
272.16094
272.35991
273.59656
274.49172
275.72509
277.15059
278.77727
280.75901
283.03157
285.67055
288.58604
291.64877
294.62184
297.27721
299.45647
301.0687
302.03383
302.43254
302.47422
302.25002
301.85464
301.37107
300.85955
300.36987
299.94924
299.61696
299.31008
298.92873
298.52105
298.25433
298.1193
298.0706
298.07718
298.11127
298.17822
298.21262
298.23037
298.23654
298.23985
298.19199
298.15062
298.12138
298.09628
298.05316
284.48041
282.7026
274.27355
269.09974
272.08864
271.21456
272.96507
273.2478
274.49519
275.47006
276.7542
278.26362
279.98214
282.06398
284.44784
287.18261
290.15629
293.20503
296.08502
298.5867
300.58238
301.96667
302.70117
302.94205
302.85907
302.53446
302.06532
301.52842
300.97869
300.46287
300.0264
299.68351
299.36137
298.9556
298.53638
298.26988
298.13675
298.0888
298.09442
298.12903
298.18607
298.21501
298.23006
298.23514
298.23368
298.18559
298.14528
298.11716
298.09259
298.05011
284.77469
282.64817
274.60893
269.84615
272.88136
272.07459
273.8091
274.18041
275.44131
276.49915
277.83984
279.43738
281.25526
283.44123
285.93534
288.75555
291.76433
294.76921
297.5293
299.86069
301.65341
302.79403
303.31239
303.41274
303.20811
302.79077
302.25447
301.66942
301.08543
300.54665
300.09669
299.74443
299.40745
298.97861
298.54921
298.28416
298.15346
298.10629
298.11066
298.14448
298.19269
298.21698
298.22962
298.23401
298.22703
298.17924
298.14008
298.11311
298.08895
298.04726
285.10006
282.55626
275.0451
270.65499
273.7059
272.97702
274.69485
275.16018
276.43871
277.58331
278.98743
280.67879
282.60233
284.8947
287.49423
290.38399
293.40021
296.32999
298.94599
301.09279
302.65647
303.54685
303.87851
303.84234
303.52264
303.02058
302.42356
301.79528
301.18078
300.62197
300.1607
299.80037
299.44899
298.99451
298.55993
298.29744
298.16963
298.12314
298.1262
298.15739
298.19807
298.21852
298.22901
298.23313
298.21974
298.17292
298.13502
298.10918
298.08531
298.04454
285.48541
282.44039
275.56229
271.51197
274.56676
273.92656
275.62642
276.19117
277.49191
278.72702
280.20635
281.99476
284.02854
286.42707
289.12275
292.061
295.05357
297.87783
300.32793
302.2728
303.58403
304.23184
304.40292
304.2307
303.80504
303.22594
302.57428
301.90733
301.26578
300.68964
300.21911
299.85225
299.48788
299.00248
298.56896
298.30992
298.18528
298.13936
298.14086
298.16819
298.20239
298.21951
298.2281
298.23215
298.21274
298.16662
298.13007
298.1053
298.08167
298.04192
285.94424
282.30492
276.16047
272.42374
275.46663
274.92737
276.60869
277.27899
278.60805
279.93913
281.50306
283.39205
285.5382
288.03929
290.8164
293.77662
296.71212
299.40232
301.66763
303.38524
304.43073
304.86087
304.88241
304.57983
304.05718
303.40859
302.70807
302.00674
301.34133
300.75036
300.27248
299.90045
299.52506
299.00534
298.57672
298.32172
298.20034
298.1549
298.15419
298.17763
298.20594
298.22003
298.22669
298.23111
298.20579
298.16033
298.12522
298.10145
298.07803
298.0394
286.49264
282.15858
276.83639
273.39174
276.40839
275.98523
277.6488
278.43093
279.79614
281.22915
282.88414
284.87597
287.1343
289.73018
292.56861
295.51986
298.3645
300.89461
302.95749
304.41763
305.19779
305.44429
305.3149
304.89224
304.28152
303.57057
302.82653
302.09473
301.4084
300.80491
300.32141
299.94473
299.55677
299.00518
298.58358
298.33297
298.21468
298.16967
298.16626
298.18597
298.20897
298.22016
298.22476
298.22979
298.19874
298.15409
298.12047
298.0976
298.07439
298.03696
287.14788
282.0207
277.59148
274.42662
277.40335
277.10921
278.75648
279.65444
281.06489
282.6049
284.35622
286.45114
288.81802
291.49599
294.36948
297.27727
299.99814
302.34443
304.17998
305.36391
305.89703
305.97807
305.70291
305.17019
304.48011
303.71359
302.93103
302.17238
301.46782
300.85394
300.36632
299.98466
299.57888
299.00323
298.58989
298.34381
298.22826
298.18344
298.17717
298.19317
298.21136
298.22018
298.22315
298.2272
298.19158
298.14795
298.11581
298.09374
298.07077
298.0346
287.93176
281.86366
278.44866
275.53581
278.45871
278.30787
279.94104
280.95934
282.42455
284.07086
285.92435
288.12058
290.58856
293.33034
296.20748
299.03546
301.60203
303.74334
305.32047
306.22043
306.54343
306.45965
306.04905
305.4165
304.65537
303.83956
303.02302
302.24078
301.52047
300.89815
300.4076
300.02063
299.59573
299.00065
298.59597
298.35441
298.24115
298.19549
298.18691
298.19939
298.21325
298.22012
298.22185
298.2233
298.18435
298.1419
298.11126
298.08987
298.06717
298.03233
288.85088
281.70972
279.40277
276.72579
279.58303
279.58943
281.21297
282.35521
283.88367
285.63168
287.59187
289.88655
292.44288
295.22353
298.06805
300.77965
303.16334
305.07584
306.36829
306.99745
307.13488
306.89057
306.356
305.63356
304.80928
303.95006
303.10373
302.3009
301.56709
300.93809
300.4455
300.05272
299.60965
298.99807
298.60197
298.36466
298.25342
298.20615
298.19539
298.20463
298.21475
298.22001
298.22064
298.21839
298.17709
298.13595
298.10675
298.086
298.06361
298.03017
289.91258
281.59217
280.44586
278.00645
280.78728
280.96305
282.58284
283.84866
285.44547
287.29575
289.36269
291.74894
294.37479
297.16321
299.93598
302.49642
304.6716
306.32447
307.31861
307.71
307.66929
307.27393
306.62703
305.82426
304.94415
304.04684
303.17451
302.35375
301.60848
300.97432
300.48033
300.08124
299.62079
298.99546
298.60794
298.37436
298.26502
298.21664
298.20279
298.20873
298.21533
298.21936
298.2196
298.21234
298.16987
298.13012
298.10228
298.08212
298.06011
298.0281
291.12029
281.51353
281.5742
279.38717
282.08259
282.43808
284.05918
285.44645
287.11656
289.06746
291.2391
293.70554
296.37472
299.13361
301.79409
304.17071
306.11261
307.47364
308.17656
308.36239
308.14595
307.6128
306.86499
305.99099
305.06186
304.13137
303.23644
302.40019
301.6453
301.00729
300.51229
300.10643
299.62899
298.99306
298.6138
298.38335
298.275
298.22571
298.20948
298.21187
298.21556
298.21814
298.21824
298.20552
298.1627
298.12446
298.09788
298.07825
298.05669
298.02616
292.44602
281.51527
282.80363
280.88118
283.47946
284.01913
285.64716
287.15142
288.90619
290.95238
293.22188
295.75001
298.42931
301.1172
303.62615
305.78865
307.46626
308.51743
308.95806
308.95159
308.56897
307.91098
307.07323
306.13644
305.1645
304.2052
303.29072
302.44113
301.67823
301.03748
300.54166
300.12875
299.63534
298.99098
298.61945
298.39164
298.2839
298.23389
298.21573
298.21398
298.21563
298.21664
298.21646
298.19851
298.15565
298.11894
298.09357
298.0744
298.05334
298.02433
293.87248
281.64206
284.1296
282.49631
284.98595
285.71002
287.35028
288.97149
290.81949
292.95526
295.30872
297.87225
300.52086
303.09371
305.41398
307.33471
308.71345
309.45634
309.67263
309.47542
308.94158
308.17178
307.25458
306.26286
305.25377
304.26962
303.33831
302.47733
301.70788
301.06524
300.56869
300.14863
299.64037
298.98928
298.62489
298.39936
298.29197
298.24101
298.22117
298.21518
298.21553
298.21559
298.21379
298.1912
298.14873
298.11355
298.0893
298.07059
298.05008
298.02261
295.35043
281.98054
285.55688
284.23273
286.608
287.51331
289.17635
290.91699
292.86138
295.07864
297.49317
300.0569
302.62871
305.04306
307.14007
308.78738
309.84595
310.30696
310.31656
309.9388
309.26828
308.3992
307.41224
306.37273
305.33154
304.32603
303.38027
302.50959
301.73483
301.091
300.5937
300.16661
299.64449
298.98798
298.63026
298.40676
298.29952
298.24708
298.22495
298.21662
298.21515
298.21495
298.20983
298.18376
298.14195
298.10827
298.08505
298.06681
298.04695
298.02097
296.74276
282.68862
287.0815
286.08616
288.3555
289.43892
291.14584
292.9951
295.03728
297.32048
299.76324