/*--------------------------------*- C++ -*----------------------------------*\
  =========                 |
  \\      /  F ield         | OpenFOAM: The Open Source CFD Toolbox
   \\    /   O peration     | Website:  https://openfoam.org
    \\  /    A nd           | Version:  8
     \\/     M anipulation  |
\*---------------------------------------------------------------------------*/
FoamFile
{
    version     2.0;
    format      ascii;
    class       volVectorField;
    location    "0.10999";
    object      U;
}
// * * * * * * * * * * * * * * * * * * * * * * * * * * * * * * * * * * * * * //

dimensions      [0 1 -1 0 0 0 0];

internalField   nonuniform List<vector> 
20000
(
(246.42988 2.8152911e-16 9.9976792)
(288.73799 -3.8493099e-19 12.091212)
(315.97822 -1.6007076e-16 13.080187)
(338.96372 2.7153145e-16 13.890685)
(359.50156 -1.1679943e-16 14.528585)
(377.44639 9.8235674e-17 15.080963)
(383.84328 -8.2864054e-17 14.759962)
(385.93147 0 15.54176)
(384.2002 -9.0547655e-19 14.45457)
(385.10627 4.8165408e-17 15.700077)
(383.91413 -4.1402428e-17 14.248461)
(384.11697 0 15.631353)
(383.10037 2.7943941e-17 14.126397)
(382.74175 -3.1892833e-17 15.336587)
(381.66215 9.6582217e-18 14.010886)
(380.76749 8.0878674e-18 14.852937)
(379.38192 -6.6982563e-18 13.761216)
(377.85464 -5.5983794e-18 14.127551)
(375.89388 -2.345735e-18 13.200028)
(373.53036 9.5779776e-19 13.115971)
(370.62352 0 12.228797)
(367.06332 1.0865271e-17 11.694021)
(362.74985 -2.8999617e-17 10.650312)
(357.51125 -1.488414e-17 9.6638245)
(351.28775 0 8.3683684)
(343.98853 -2.5900754e-17 7.0454073)
(335.7157 -6.1646514e-19 5.6277397)
(326.6827 -1.4194256e-17 4.3237974)
(317.32704 -1.7395085e-17 3.2056826)
(308.14242 1.8057018e-17 2.3861103)
(299.60383 2.6242557e-17 1.8711839)
(292.01393 -5.2800254e-17 1.6341282)
(285.51964 -3.8109521e-19 1.5904414)
(280.10795 1.4263186e-17 1.6493249)
(275.70607 2.2336587e-17 1.7448629)
(272.19584 -1.6873343e-17 1.8105727)
(269.4384 -7.7144435e-17 1.8246073)
(267.3033 -1.9285415e-17 1.7813458)
(265.66869 0 1.6868283)
(264.43406 -8.4692156e-17 1.5474717)
(263.49549 -3.1878596e-17 1.3687698)
(262.77072 2.4206746e-17 1.16304)
(262.22997 -5.4142189e-19 0.9212895)
(261.82514 1.0219193e-16 0.61749021)
(261.40419 -2.9497393e-19 0.24063852)
(260.91047 1.1213792e-16 -0.10243368)
(260.5881 0 -0.30868281)
(260.51585 -7.9265246e-18 -0.37139197)
(260.80077 1.2194338e-17 -0.34991622)
(260.79589 -4.3449585e-17 -0.70307167)
(248.21208 2.849701e-16 9.0957883)
(290.564 3.9426177e-19 11.020808)
(317.83742 6.3704004e-19 11.885213)
(340.80936 -1.3796357e-16 12.604767)
(361.24804 1.1961509e-16 13.152451)
(378.86192 -7.8260434e-19 13.625129)
(384.32346 1.3146777e-18 13.219037)
(386.31346 7.0327782e-17 14.068134)
(384.52162 -5.974667e-17 12.870143)
(385.44644 -4.8929765e-17 14.189235)
(384.20062 4.2076778e-17 12.596005)
(384.39203 0 14.055787)
(383.35942 -1.4208702e-17 12.421468)
(382.99323 2.9233896e-18 13.698555)
(381.88663 9.8767965e-18 12.270927)
(380.97226 -8.1759989e-18 13.138008)
(379.55877 0 11.96554)
(378.00798 5.698509e-18 12.327365)
(376.02256 -9.4962709e-18 11.334662)
(373.62904 0 11.199012)
(370.68939 0 10.23499)
(367.07419 0 9.6270704)
(362.70119 -1.8262887e-17 8.5044407)
(357.40368 1.5130009e-17 7.4465973)
(351.12576 1.274941e-17 6.1017171)
(343.78355 -1.0217866e-17 4.7661453)
(335.48194 8.6273369e-17 3.3983781)
(326.44224 1.4380824e-17 2.220409)
(317.09777 1.1578447e-16 1.3062747)
(307.93783 -3.727781e-17 0.7454806)
(299.42787 2.9917454e-17 0.51059954)
(291.86849 -1.1736708e-17 0.54218007)
(285.40193 0 0.73607535)
(280.02002 2.9327833e-17 0.99348379)
(275.64663 2.9313031e-19 1.2507423)
(272.16311 1.2008228e-16 1.4442718)
(269.42355 3.3734557e-16 1.5569441)
(267.30086 -1.7537066e-16 1.5884892)
(265.67354 -2.6198479e-16 1.5500585)
(264.44232 1.0798493e-16 1.4515368)
(263.50317 -2.8761286e-16 1.3013018)
(262.77702 2.3522165e-17 1.1183428)
(262.23638 0 0.89339964)
(261.82988 -1.0209602e-16 0.59835284)
(261.36822 0 0.21866503)
(260.8235 1.1162436e-16 -0.12190463)
(260.56546 1.0403432e-17 -0.31419347)
(260.56015 -1.3322134e-16 -0.35982743)
(260.76927 0 -0.33939251)
(260.81945 -3.7002763e-17 -0.67888012)
(249.262 2.9015414e-16 8.1277948)
(291.80788 -8.0243868e-19 9.908201)
(319.20268 6.4905866e-19 10.664897)
(342.24898 0 11.294652)
(362.66331 -9.4496608e-19 11.736997)
(380.01804 5.8406607e-22 12.146837)
(384.57276 -4.0158184e-18 11.6426)
(386.51857 0 12.545823)
(384.65416 1.8718258e-18 11.238773)
(385.62274 0 12.644787)
(384.3201 -2.0805585e-17 10.925606)
(384.53865 1.7252379e-17 12.46963)
(383.48456 -7.2138948e-18 10.725918)
(383.11768 -6.029702e-18 12.058118)
(381.9933 9.9939006e-18 10.540104)
(381.06385 8.3485585e-18 11.417881)
(379.62822 -1.3921845e-17 10.177556)
(378.04105 -2.319862e-17 10.522134)
(376.00417 2.8988243e-17 9.4662484)
(373.54304 0 9.2740446)
(370.53204 0 8.2311114)
(366.83162 1.1255163e-17 7.5409266)
(362.36989 2.7879495e-17 6.344915)
(356.9822 0 5.2199981)
(350.61857 -3.8250678e-17 3.832093)
(343.20577 -2.1149109e-17 2.4891092)
(334.85864 8.8136911e-18 1.1763553)
(325.81355 0 0.12778952)
(316.50257 2.8885203e-19 -0.58151676)
(307.40672 1.5192858e-16 -0.88478602)
(298.97327 1.5388344e-17 -0.8414078)
(291.49417 -1.1891682e-17 -0.54248285)
(285.1038 -1.7083365e-16 -0.11216858)
(279.79103 1.4583471e-17 0.34252044)
(275.47672 0 0.76004397)
(272.04384 -1.0354269e-16 1.079884)
(269.34366 -4.4427492e-16 1.2896873)
(267.2499 1.7660013e-16 1.3947822)
(265.64231 -4.3943413e-17 1.411521)
(264.42335 2.1652542e-17 1.3531777)
(263.48874 2.2430065e-16 1.230743)
(262.76574 2.356452e-17 1.0703059)
(262.23193 0 0.86224068)
(261.8232 0 0.57278494)
(261.29398 3.0039518e-16 0.1911139)
(260.77441 -1.38387e-17 -0.14150651)
(260.55579 1.0310575e-17 -0.31822998)
(260.56257 1.0844339e-16 -0.35255166)
(260.7654 -1.8285742e-16 -0.32948127)
(260.82778 -7.1142689e-17 -0.65739861)
(250.2357 1.4778609e-16 7.1277938)
(292.99212 2.4538045e-18 8.7525111)
(320.49309 3.6388385e-23 9.3916226)
(343.60416 0 9.9270852)
(363.98815 0 10.257726)
(381.02328 1.6197723e-18 10.613301)
(384.69663 2.7255762e-18 10.021036)
(386.6197 0 10.9882)
(384.73394 -3.8078003e-18 9.578225)
(385.70292 0 11.088748)
(384.38981 0 9.2520641)
(384.61195 8.7913527e-18 10.892903)
(383.49796 7.3359488e-18 9.0391319)
(383.11868 0 10.42398)
(381.96153 0 8.8121789)
(380.99796 -9.019207e-18 9.699929)
(379.52001 4.20049e-19 8.3802428)
(377.87309 2.3574325e-17 8.6930568)
(375.76855 -1.9641274e-17 7.5695759)
(373.22224 -4.1037879e-17 7.3234422)
(370.12178 -1.1464374e-19 6.2148909)
(366.3282 -2.8397934e-17 5.4552714)
(361.77077 -1.8874469e-17 4.1937045)
(356.28262 7.7316147e-18 3.00851)
(349.82226 5.1936735e-17 1.5852384)
(342.32782 0 0.24301473)
(333.93219 -2.1344484e-16 -1.0068374)
(324.89023 0 -1.9207186)
(315.6374 -9.5008741e-17 -2.4247356)
(306.64308 2.0046918e-17 -2.4748725)
(298.33121 -1.516156e-17 -2.1605098)
(290.97606 2.2048922e-16 -1.6018942)
(284.69944 1.5366086e-16 -0.9418453)
(279.48522 -2.5308534e-16 -0.2951476)
(275.25263 0 0.27871288)
(271.887 -3.1398666e-16 0.72192461)
(269.23795 2.3681515e-16 1.0266027)
(267.18136 0 1.2036789)
(265.59935 2.3523739e-16 1.2745378)
(264.39662 0 1.2557589)
(263.46931 5.1423507e-16 1.1606382)
(262.75149 0 1.0223576)
(262.22579 -5.5507461e-16 0.83164123)
(261.81124 4.0730389e-16 0.54537296)
(261.21689 1.8822756e-17 0.16341448)
(260.73229 -6.7610683e-16 -0.15834666)
(260.54786 3.2742193e-16 -0.32056578)
(260.57261 1.5306225e-17 -0.34412034)
(260.76053 1.7404582e-16 -0.3195747)
(260.83909 1.4352987e-16 -0.63524045)
(251.14552 -1.4933502e-16 6.1107786)
(294.08037 1.0495339e-16 7.5789981)
(321.67724 8.7391656e-22 8.1068922)
(344.85272 2.2914394e-18 8.5513808)
(365.2137 0 8.7648875)
(381.87893 0 9.073408)
(384.69681 0 8.3927127)
(386.6622 3.7001226e-17 9.4237414)
(384.69251 -2.707027e-17 7.9041324)
(385.72046 3.2170496e-17 9.5166674)
(384.31724 -1.0702038e-17 7.5536227)
(384.58208 -1.7855978e-17 9.2929624)
(383.37338 0 7.3282601)
(382.96623 0 8.7571214)
(381.76384 0 7.0483043)
(380.75179 0 7.9434185)
(379.21891 4.32444e-17 6.5538937)
(377.50682 -1.8012856e-17 6.8406985)
(375.33518 -4.9729757e-18 5.6585136)
(372.70661 4.1680927e-17 5.360476)
(369.51741 -1.3882184e-17 4.1912419)
(365.62063 4.0174554e-17 3.3655041)
(360.95276 9.493869e-18 2.0448999)
(355.34704 6.4044943e-17 0.80618434)
(348.77154 0 -0.64354964)
(341.17958 -8.7967421e-17 -1.9746217)
(332.72736 1.4426959e-16 -3.1504151)
(323.69254 -1.1903127e-16 -3.9207956)
(314.51601 1.9394342e-16 -4.2160661)
(305.65316 -1.3619587e-16 -4.0157207)
(297.50008 -2.659736e-16 -3.4373048)
(290.30704 -1.9782564e-16 -2.6274154)
(284.17912 0 -1.7457686)
(279.09195 2.4049219e-16 -0.91399008)
(274.96342 -2.3207899e-17 -0.18919643)
(271.68221 5.6216812e-16 0.37326734)
(269.09754 -4.1119582e-16 0.76961529)
(267.08788 -3.1778153e-16 1.0163283)
(265.53859 -2.9596703e-17 1.1396578)
(264.35713 2.181694e-17 1.1593542)
(263.44061 3.2335373e-17 1.0908828)
(262.73087 4.0227756e-16 0.97430743)
(262.21442 5.3757058e-16 0.80077934)
(261.7871 -4.1918019e-16 0.51540753)
(261.14036 -9.1352824e-16 0.13501084)
(260.69893 4.5262504e-16 -0.17281625)
(260.54132 -3.2459915e-16 -0.32176615)
(260.57901 0 -0.33565668)
(260.75849 3.5946018e-16 -0.30955881)
(260.85042 2.1950929e-18 -0.61309697)
(251.92873 -1.1969166e-18 5.0702478)
(295.02591 1.0868411e-16 6.355325)
(322.71855 -8.9424948e-17 6.7701222)
(345.95997 -4.6698441e-18 7.1254516)
(366.30592 0 7.21301)
(382.55421 -5.3573841e-17 7.4870995)
(384.55121 -6.224009e-20 6.724228)
(386.47752 3.7571918e-17 7.827193)
(384.48139 7.882283e-18 6.1959883)
(385.48197 -6.53359e-18 7.9154698)
(384.07739 0 5.823985)
(384.27115 9.1027446e-18 7.6526887)
(383.09704 0 5.5721886)
(382.66324 1.4246605e-17 7.0541799)
(381.41548 -1.3152216e-18 5.2580135)
(380.3568 -2.2054836e-18 6.162779)
(378.77118 -5.3148912e-17 4.7088713)
(376.99377 5.1985518e-17 4.9692655)
(374.75187 -5.0612644e-18 3.7327349)
(372.03582 -2.5461623e-17 3.3840679)
(368.75004 -1.4133848e-17 2.1596341)
(364.7401 5.8195034e-18 1.272281)
(359.94878 6.8597544e-17 -0.10086227)
(354.21032 -5.6858629e-17 -1.3860611)
(347.50365 1.0826646e-16 -2.8524695)
(339.80084 -1.0152159e-16 -4.160118)
(331.28615 2.7733408e-17 -5.248285)
(322.26306 1.2090792e-16 -5.8640248)
(313.17884 -2.0810004e-16 -5.9454319)
(304.47265 0 -5.4966632)
(296.50944 4.9126276e-16 -4.6616977)
(289.51042 3.7669968e-17 -3.6104285)
(283.56025 3.6491831e-19 -2.5171009)
(278.62422 -1.5056771e-17 -1.5088185)
(274.61905 2.3413289e-17 -0.63983509)
(271.43721 2.8393661e-16 0.03671334)
(268.92821 4.4043358e-16 0.52074662)
(266.97373 -3.3960001e-16 0.83419512)
(265.4632 0 1.0079433)
(264.30729 0 1.0647255)
(263.40472 -4.8411257e-16 1.0221471)
(262.70574 -4.0242819e-16 0.92701033)
(262.19772 5.7191444e-16 0.76965831)
(261.74683 7.9872169e-16 0.48403697)
(261.07109 -1.5956262e-19 0.10648991)
(260.66924 0 -0.1849826)
(260.535 0 -0.32193085)
(260.58319 0 -0.32730782)
(260.75819 -3.5910981e-16 -0.29935426)
(260.86343 0 -0.59090974)
(252.5955 7.5616505e-17 4.0328106)
(295.85106 2.0207999e-20 5.1155963)
(323.6428 -4.4865633e-17 5.4143527)
(346.95026 2.3772399e-18 5.6883238)
(367.28625 2.8466363e-17 5.6403858)
(383.05569 -2.7194953e-17 5.8887314)
(384.28189 0 5.0438981)
(386.22758 0 6.2213009)
(384.17212 -2.4038567e-17 4.4683178)
(385.19916 -3.2552416e-20 6.2937593)
(383.73909 -2.9301196e-20 4.0672436)
(383.94165 -9.2409023e-18 5.9813175)
(382.70674 -1.643789e-17 3.7852671)
(382.24495 1.3722569e-17 5.321646)
(380.95333 0 3.4442266)
(379.84715 3.5847828e-17 4.3583603)
(378.20753 5.9693916e-17 2.8457682)
(376.36217 -3.1083614e-17 3.080001)
(374.04629 5.1511095e-18 1.7939272)
(371.23722 1.0374019e-16 1.3951762)
(367.84671 5.7701324e-17 0.11930776)
(363.71232 0 -0.82675839)
(358.78317 -7.9499736e-17 -2.2462565)
(352.89607 -1.3294098e-16 -3.5702601)
(346.0422 1.4707847e-17 -5.0421939)
(338.21645 -9.1094489e-19 -6.3120476)
(329.63501 -9.1832733e-18 -7.2966889)
(320.62927 0 -7.7445978)
(311.65216 -2.2574575e-16 -7.6056089)
(303.12444 -6.0625277e-19 -6.9098114)
(295.37711 -2.4076647e-16 -5.8259136)
(288.59893 -2.5610526e-17 -4.5439439)
(282.85133 1.9626248e-17 -3.2500332)
(278.08739 -4.6072064e-16 -2.0750697)
(274.22262 -2.3344876e-17 -1.0697268)
(271.15368 -1.1419877e-15 -0.28514672)
(268.73083 -4.5690452e-16 0.28187793)
(266.8393 6.4198531e-16 0.6586078)
(265.37325 -4.321472e-16 0.8803128)
(264.24696 7.0407244e-16 0.97248575)
(263.36152 -1.614121e-17 0.95481499)
(262.67616 2.3704685e-17 0.88090179)
(262.17485 -1.7216643e-17 0.73779452)
(261.68753 -8.0914777e-16 0.45224516)
(261.01032 -1.4352825e-19 0.078511197)
(260.64387 1.3550197e-17 -0.1952298)
(260.52877 9.9696582e-18 -0.32132587)
(260.58346 4.4266222e-16 -0.31870303)
(260.76118 1.1037449e-17 -0.28885747)
(260.87691 2.6801773e-16 -0.56876576)
(253.1663 4.9684628e-18 2.9299158)
(296.58239 0 3.8638777)
(324.47784 0 4.0117882)
(347.85429 0 4.2097525)
(368.18088 3.3119257e-17 4.0154436)
(383.41085 -2.0721978e-17 4.2504572)
(383.92925 5.8552603e-18 3.3224867)
(385.87551 0 4.581581)
(383.7701 1.6313097e-17 2.7022209)
(384.80618 -2.0301979e-17 4.6408206)
(383.30277 2.262444e-17 2.2815325)
(383.49423 -1.8849546e-17 4.2863485)
(382.22343 1.3726686e-17 1.9818046)
(381.73455 -2.7796241e-17 3.5681913)
(380.39931 2.7227412e-18 1.6124064)
(379.24433 1.2547233e-19 2.5337941)
(377.54903 -2.2688092e-17 0.96662957)
(375.63201 -1.2655852e-17 1.1729339)
(373.23642 5.2422164e-18 -0.15938787)
(370.32654 3.3834159e-19 -0.60836288)
(366.82124 3.1048114e-19 -1.9317826)
(362.55098 0 -2.9331815)
(357.47052 0 -4.3925537)
(351.42033 1.1738454e-16 -5.7470844)
(344.40543 1.4596805e-17 -7.2122624)
(336.44775 1.8449322e-16 -8.4282134)
(327.79861 3.2569505e-16 -9.2916698)
(318.81817 -2.6608511e-16 -9.5572338)
(309.96323 2.2808777e-16 -9.1905499)
(301.63366 -2.0089065e-17 -8.2488372)
(294.12433 -5.2255203e-16 -6.9238111)
(287.58923 -2.5916389e-17 -5.4224376)
(282.06463 1.9850578e-17 -3.9399132)
(277.4902 4.9530878e-16 -2.6090052)
(273.78025 0 -1.4759556)
(270.83592 5.9279393e-16 -0.59010417)
(268.50837 4.1875231e-16 0.054636611)
(266.68659 0 0.49073872)
(265.27004 4.4847267e-16 0.75759849)
(264.17702 -6.8357465e-16 0.88325124)
(263.31174 -1.0362143e-15 0.88924793)
(262.64286 -7.5806544e-16 0.8359659)
(262.14624 5.3610812e-16 0.70466611)
(261.61292 1.2593745e-17 0.42070542)
(260.95534 5.8890144e-16 0.052004514)
(260.62021 0 -0.20389193)
(260.52266 0 -0.31994216)
(260.58304 -4.8080998e-16 -0.30916098)
(260.7671 5.4282548e-18 -0.27796139)
(260.89026 2.6612879e-16 -0.54677609)
(253.68342 3.7944111e-17 1.7096094)
(297.25225 0 2.6228531)
(325.25651 0 2.5827903)
(348.69876 4.9506191e-18 2.706257)
(369.0071 -1.0505717e-20 2.3566683)
(383.63772 -7.0214056e-18 2.589865)
(383.45459 1.5421411e-20 1.5751333)
(385.45162 0 2.9224114)
(383.29585 -1.0348741e-17 0.91127647)
(384.34423 1.545872e-17 2.9652836)
(382.79523 -1.2929609e-17 0.47379597)
(382.9798 -1.2613312e-18 2.5676711)
(381.66625 1.9941751e-18 0.15651861)
(381.14778 6.6762463e-18 1.7919524)
(379.76769 -3.3381539e-17 -0.23766002)
(378.56101 -3.2376737e-17 0.6884936)
(376.80669 -7.7643366e-18 -0.92931603)
(374.81292 -6.5504816e-18 -0.75310439)
(372.33115 1.0668818e-17 -2.128471)
(369.31255 -6.2409347e-17 -2.6279179)
(365.68264 -8.1942596e-17 -3.9951827)
(361.26522 -7.4860953e-17 -5.048558)
(356.02029 -1.0199312e-17 -6.5410794)
(349.79336 1.7429038e-17 -7.9169829)
(342.60553 -1.1309791e-16 -9.3617364)
(334.50997 4.1454841e-19 -10.505951)
(325.79579 -6.9252664e-18 -11.229125)
(316.85142 5.0828799e-16 -11.297016)
(308.1347 3.8794281e-16 -10.695107)
(300.0218 2.0399262e-17 -9.5086663)
(292.7696 -2.6291704e-18 -7.9505815)
(286.49604 -2.6219558e-17 -6.2415623)
(281.21115 2.0072897e-17 -4.5830132)
(276.84049 0 -3.1075557)
(273.29736 7.6543376e-16 -1.8560597)
(270.48764 -5.6124925e-16 -0.87624438)
(268.26331 -1.3535358e-17 -0.15953964)
(266.51725 6.4848689e-16 0.33163782)
(265.15459 0 0.64054777)
(264.0981 -7.0735212e-16 0.7976104)
(263.25587 1.0369969e-15 0.82592747)
(262.60636 1.5155922e-15 0.79199565)
(262.11284 -2.2267859e-15 0.66998695)
(261.52962 7.9204461e-16 0.38946252)
(260.90169 1.8288888e-17 0.027723274)
(260.59684 0 -0.21093042)
(260.51663 0 -0.31773515)
(260.58423 -9.3503753e-16 -0.29967259)
(260.77439 1.067204e-17 -0.26665464)
(260.90285 -5.1256372e-16 -0.52499292)
(254.1479 2.3187621e-17 0.52216106)
(297.87046 -1.8293018e-17 1.3359344)
(325.98931 -1.1886341e-17 1.1136614)
(349.49592 -5.0409663e-18 1.163301)
(369.76899 1.2853374e-17 0.65978516)
(383.73706 0 0.90371244)
(382.94817 -6.0458513e-18 -0.20623304)
(384.96154 -1.2578249e-18 1.2421428)
(382.75758 1.0519495e-18 -0.90483767)
(383.81601 0 1.2663665)
(382.22246 5.8602264e-18 -1.355667)
(382.39739 9.7070551e-18 0.82747693)
(381.04235 -2.8521108e-17 -1.6864185)
(380.49226 -6.7914261e-18 -0.0051290957)
(379.06571 2.820066e-17 -2.1050181)
(377.80388 0 -1.1776129)
(375.98663 6.3025369e-17 -2.8426871)
(373.91046 0 -2.6993168)
(371.33554 0 -4.1146973)
(368.20001 0 -4.664847)
(364.43552 -1.0652667e-16 -6.0721004)
(359.85992 2.0268868e-16 -7.1737178)
(354.43799 -1.0383487e-17 -8.6922868)
(348.02189 1.4057495e-16 -10.079513)
(340.65155 1.4747438e-17 -11.488745)
(332.41574 -1.1776903e-17 -12.54182)
(323.64315 -3.1476989e-16 -13.104614)
(314.7487 -5.1698934e-16 -12.95927)
(306.18763 -4.1767661e-16 -12.114901)
(298.30919 2.1281092e-17 -10.685358)
(291.33089 5.1749368e-16 -8.9026796)
(285.33405 -4.4850256e-16 -6.9981581)
(280.30218 4.0902512e-17 -5.1765887)
(276.14654 -1.5661833e-17 -3.568396)
(272.77989 1.3938658e-18 -2.2081075)
(270.11304 5.8242565e-16 -1.1420227)
(267.99857 0 -0.35946763)
(266.33323 -1.3019334e-15 0.18218691)
(265.02816 -3.01406e-17 0.52979613)
(264.01103 7.0834196e-16 0.71606867)
(263.19461 -1.6270356e-17 0.76549197)
(262.56724 -7.5730688e-16 0.74904015)
(262.07585 1.1369307e-15 0.63365332)
(261.44269 -8.1412735e-16 0.35831826)
(260.84766 0 0.0060085862)
(260.5728 8.488771e-16 -0.21618303)
(260.51148 -1.2391443e-15 -0.31457037)
(260.58679 9.0881624e-16 -0.28973883)
(260.78234 0 -0.2549851)
(260.91432 3.9110587e-18 -0.5034347)
(254.56759 -2.9493543e-18 -0.70389802)
(298.45141 1.8582837e-18 0.035463953)
(326.69264 0 -0.37755796)
(350.26313 5.1437408e-18 -0.41077988)
(370.46846 4.3667183e-18 -1.06988)
(383.70837 -7.2721235e-18 -0.80036025)
(382.37726 -6.1620784e-18 -2.012084)
(384.41511 5.104812e-18 -0.45181548)
(382.16358 0 -2.7389905)
(383.2305 7.1224383e-18 -0.45181771)
(381.5922 -5.9381867e-18 -3.203895)
(381.75572 -1.983681e-17 -0.93376474)
(380.35778 7.4428434e-17 -3.5481875)
(379.77307 -6.8668917e-18 -1.8242545)
(378.29771 1.154028e-17 -3.9905576)
(376.97653 -9.5434655e-18 -3.0657849)
(375.09172 2.9695292e-19 -4.7746926)
(372.9271 -1.3416279e-17 -4.6669924)
(370.25194 1.1043507e-17 -6.1192323)
(366.9914 9.3516788e-18 -6.7200516)
(363.08247 1.1561463e-16 -8.1633136)
(358.3378 -1.0266774e-16 -9.3091077)
(352.72666 -1.7220931e-16 -10.846134)
(346.11006 -1.4199589e-16 -12.233535)
(338.54999 -2.3766499e-16 -13.590581)
(330.17522 1.9652197e-16 -14.531608)
(321.35488 2.0428112e-17 -14.913265)
(312.52735 2.4564166e-16 -14.539385)
(304.14076 4.2751482e-16 -13.446082)
(296.51422 0 -11.77583)
(289.82467 5.6092461e-16 -9.7775653)
(284.11696 4.3872174e-16 -7.6900407)
(279.3484 6.4272466e-16 -5.7187294)
(275.41632 -1.0521448e-15 -3.989847)
(272.2336 -1.5287491e-15 -2.5306376)
(269.71625 0 -1.3862253)
(267.71705 -2.7517052e-17 -0.54419562)
(266.13651 1.9604295e-15 0.043112374)
(264.89203 -9.5085579e-16 0.42588476)
(263.91662 -1.4416246e-15 0.63901923)
(263.12867 -1.022043e-15 0.70852936)
(262.5259 -1.4896725e-15 0.7074379)
(262.03606 1.0829697e-15 0.59571236)
(261.35587 0 0.32698497)
(260.79396 1.1416897e-15 -0.013173505)
(260.54759 -8.2920944e-16 -0.21957464)
(260.50492 -6.4243693e-20 -0.31016796)
(260.59033 1.4012478e-17 -0.27939798)
(260.79072 -1.0317176e-17 -0.24300151)
(260.92446 -3.8261867e-18 -0.48210592)
(254.95455 -2.4030398e-17 -1.9569156)
(299.00004 0 -1.2943129)
(327.37073 0 -1.888529)
(351.00894 -5.2258544e-18 -2.0163939)
(371.09525 1.3311881e-17 -2.8337088)
(383.55866 1.0373343e-20 -2.5220151)
(381.75832 2.5077896e-17 -3.8450193)
(383.81643 2.0866119e-20 -2.1677185)
(381.51732 -8.6964638e-18 -4.5963672)
(382.59043 -6.587039e-21 -2.1923597)
(380.90718 -2.4189397e-17 -5.072646)
(381.05671 3.0138129e-17 -2.7170245)
(379.61494 1.3081372e-19 -5.4285182)
(378.99244 0 -3.6658386)
(377.46563 1.1737237e-17 -5.8948696)
(376.08048 2.9392424e-17 -4.9771597)
(374.12321 -6.4913417e-17 -6.7264299)
(371.86407 1.3651884e-17 -6.6570407)
(369.08156 -1.1233924e-17 -8.1427906)
(365.68784 -7.5747311e-17 -8.7940792)
(361.62448 0 -10.26923)
(356.69982 -1.3269541e-17 -11.454677)
(350.88761 9.3035824e-18 -13.001915)
(344.06036 0 -14.37704)
(336.30602 -1.7603274e-17 -15.6636)
(327.79746 -1.9865932e-16 -16.470345)
(318.94402 1.0036788e-17 -16.649847)
(310.20343 0 -16.032884)
(302.01149 -4.3085902e-16 -14.685356)
(294.65391 -6.7343166e-16 -12.777832)
(288.26629 -3.125353e-17 -10.573643)
(282.85767 8.7675832e-16 -8.3159389)
(278.36005 -6.6749186e-16 -6.2083119)
(274.65757 1.0099847e-15 -4.3708525)
(271.6642 -7.7205774e-16 -2.8226541)
(269.30142 1.1989384e-15 -1.6079779)
(267.42171 -4.1386194e-17 -0.71301707)
(265.92912 -2.6227453e-15 -0.08503018)
(264.7475 1.9810925e-15 0.32925695)
(263.81573 1.3983057e-15 0.56674306)
(263.05879 1.005415e-15 0.65529431)
(262.48246 1.534647e-15 0.66748928)
(261.99318 -1.1141764e-15 0.55644512)
(261.27196 1.6037173e-15 0.29521502)
(260.74239 -1.1528335e-15 -0.030132542)
(260.52042 0 -0.22119627)
(260.49594 1.2141583e-15 -0.30396772)
(260.59667 1.3828052e-17 -0.26869155)
(260.79954 -1.014372e-17 -0.23076991)
(260.93321 4.7982432e-16 -0.46101104)
(255.31139 9.2337161e-17 -3.1641068)
(299.52019 -3.8544309e-18 -2.6922221)
(328.02933 -3.1428579e-17 -3.430484)
(351.74306 5.340089e-18 -3.6588276)
(371.64255 0 -4.6385613)
(383.28901 3.0031733e-17 -4.265523)
(381.08947 -3.8141341e-17 -5.703077)
(383.16628 0 -3.903424)
(380.82077 -9.474956e-21 -6.474004)
(381.898 -2.7601089e-21 -3.953473)
(380.16971 1.2315445e-17 -6.9601645)
(380.30261 -1.0209288e-17 -4.5224489)
(378.81558 -6.8267e-17 -7.3279917)
(378.15156 1.4358683e-17 -5.5312146)
(376.57025 1.1935456e-17 -7.8190964)
(375.11622 -4.9438922e-17 -6.9130568)
(373.0815 1.6638026e-17 -8.6988058)
(370.72178 -1.3709369e-17 -8.6702117)
(367.82473 0 -10.186015)
(364.28948 2.3077016e-16 -10.88733)
(360.06143 1.2860105e-16 -12.390053)
(354.94572 2.1446785e-16 -13.61004)
(348.92088 1.7709793e-16 -15.15839)
(341.87411 0 -16.507234)
(333.9239 4.9086315e-16 -17.70327)
(325.29073 -4.2057996e-16 -18.35236)
(316.42278 -3.2472523e-16 -18.308819)
(307.79187 -5.4604996e-16 -17.435404)
(299.81588 0 -15.829902)
(292.74391 1.4053895e-15 -13.689805)
(286.66987 -5.7212069e-16 -11.290093)
(281.56814 1.7319492e-17 -8.8753409)
(277.34668 -6.7610321e-16 -6.6448873)
(273.87763 1.6247744e-17 -4.710906)
(271.07721 1.5605774e-15 -3.083582)
(268.87265 -1.6850624e-17 -1.8067198)
(267.11549 -8.7304566e-16 -0.86545582)
(265.71309 -9.9836965e-19 -0.2018515)
(264.59594 -2.9807487e-17 0.24025877)
(263.70922 -1.3999249e-15 0.49946685)
(262.98565 0 0.60570125)
(262.43661 0 0.62933165)
(261.9453 1.0768726e-15 0.51650699)
(261.19278 -3.1557509e-15 0.26292001)
(260.69461 1.7913708e-17 -0.045310023)
(260.49262 -1.2946709e-17 -0.22144207)
(260.48315 1.8773229e-17 -0.29504989)
(260.60755 8.4612407e-16 -0.25761721)
(260.80861 9.9728319e-18 -0.21845958)
(260.94067 -4.6225051e-16 -0.44016166)
(255.63433 8.2894549e-17 -4.3590573)
(300.0107 -1.3399714e-20 -4.121456)
(328.67039 6.3898141e-18 -4.9956236)
(352.47046 4.3458648e-17 -5.3275577)
(372.09954 -2.7405324e-17 -6.473794)
(382.90629 -7.6016854e-18 -6.0227909)
(380.37473 -2.5893248e-17 -7.5816242)
(382.46821 2.1429577e-17 -5.6565668)
(380.07631 5.3975511e-17 -8.3715688)
(381.15509 -4.4832777e-17 -5.736108)
(379.38086 2.4937251e-17 -8.8679842)
(379.49401 2.0757852e-17 -6.351305)
(377.96002 -1.7570691e-17 -9.2477599)
(377.2505 -1.446965e-17 -7.4216175)
(375.61146 0 -9.7642323)
(374.08367 -2.0255107e-17 -8.8743547)
(371.96655 1.6734537e-17 -10.692405)
(369.50023 -1.4130941e-17 -10.706827)
(366.48116 -8.2384123e-17 -12.249214)
(362.79565 -1.3609642e-16 -12.99991)
(358.39225 -1.4602689e-16 -14.52566)
(353.07427 -2.0278585e-16 -15.774345)
(346.82558 3.3419523e-19 -17.313631)
(339.55203 -9.253991e-18 -18.620414)
(331.40757 -2.3279027e-16 -19.704125)
(322.66314 3.8509246e-16 -20.171342)
(313.8031 3.4783782e-16 -19.884455)
(305.30698 -5.0826041e-18 -18.74283)
(297.569 0 -16.877439)
(290.7987 -1.4021837e-15 -14.510874)
(285.04842 -1.7396596e-17 -11.926821)
(280.25942 -1.7604012e-15 -9.368438)
(276.31722 6.7990864e-16 -7.0286324)
(273.08339 -1.0450576e-15 -5.0100119)
(270.47787 0 -3.3132416)
(268.43387 -1.1911773e-15 -1.9821914)
(266.80126 8.893247e-16 -1.0012609)
(265.49042 2.6377094e-15 -0.3071289)
(264.43869 -9.7091122e-16 0.1591276)
(263.59801 1.3998263e-15 0.43741548)
(262.90971 -1.0531827e-15 0.55968099)
(262.38763 4.7047651e-17 0.59306511)
(261.88921 -1.6724483e-17 0.47692484)
(261.11943 -4.4765986e-19 0.23026256)
(260.65136 0 -0.059000249)
(260.46737 1.6572923e-15 -0.22087729)
(260.46817 -2.7858338e-17 -0.28542925)
(260.62139 -1.7234039e-15 -0.24590507)
(260.81752 1.2643911e-15 -0.20623828)
(260.94704 0 -0.4195648)
(255.9419 5.5907179e-18 -5.5950969)
(300.4834 6.8045924e-17 -5.5686756)
(329.30105 0 -6.5887802)
(353.20403 -5.5257341e-17 -7.0300188)
(372.46216 6.5039554e-17 -8.3450021)
(382.41631 -3.0921797e-17 -7.8008538)
(379.61472 0 -9.4861026)
(381.72196 -4.3638492e-17 -7.4317963)
(379.28393 1.8255935e-17 -10.291288)
(380.36143 0 -7.5426464)
(378.54065 5.0875584e-17 -10.797028)
(378.63069 -2.108372e-17 -8.2050463)
(377.04802 1.7518078e-17 -11.188667)
(376.28882 -5.91275e-17 -9.3384111)
(374.5889 1.2238369e-17 -11.730981)
(372.98256 -6.164286e-17 -10.861698)
(370.77814 -1.7012259e-17 -12.707568)
(368.19901 -1.1459554e-16 -12.767253)
(365.04995 9.4994167e-17 -14.332861)
(361.20487 0 -15.131973)
(356.61506 0 -16.675816)
(351.0834 0 -17.946499)
(344.60016 -1.8534035e-16 -19.465222)
(337.0945 0 -20.712136)
(328.761 2.5593947e-16 -21.659909)
(319.92296 0 -21.920466)
(311.09678 0 -21.370951)
(302.76261 5.5894325e-16 -19.951351)
(295.28501 4.4010476e-16 -17.826184)
(288.83166 6.2216796e-18 -15.240749)
(283.41387 5.7111597e-16 -12.484346)
(278.94163 1.8063429e-15 -9.7960151)
(275.27982 2.3779991e-19 -7.3602499)
(272.28124 -3.5618336e-17 -5.2686107)
(269.8711 -7.8532408e-16 -3.511797)
(267.98887 1.19854e-15 -2.1344018)
(266.4818 -8.9337201e-16 -1.1203873)
(265.26305 1.0351577e-18 -0.40079193)
(264.27708 9.725911e-16 0.085989129)
(263.48309 -2.2245754e-17 0.38079231)
(262.8313 1.5844841e-17 0.51766678)
(262.33469 0 0.55874955)
(261.82208 3.3555199e-19 0.43883205)
(261.05214 1.5438908e-15 0.19769829)
(260.61269 1.1663918e-15 -0.071409719)
(260.44575 -1.2573038e-17 -0.21974681)
(260.4543 1.1759496e-15 -0.27449213)
(260.63661 8.5004687e-16 -0.23346871)
(260.82599 -1.2431091e-15 -0.19416942)
(260.95257 7.0309919e-18 -0.39922252)
(256.22443 -8.5774099e-17 -6.8637402)
(300.93086 0 -7.0475755)
(329.91073 -6.6445931e-18 -8.2200337)
(353.94214 5.6089463e-18 -8.7776436)
(372.71623 -9.4502273e-18 -10.256749)
(381.81661 0 -9.6034414)
(378.80857 0 -11.417613)
(380.92714 4.4325552e-17 -9.2295427)
(378.44336 -3.7062491e-17 -12.232368)
(379.51685 -3.0907897e-17 -9.3732724)
(377.64883 1.1351425e-19 -12.747905)
(377.71217 0 -10.084867)
(376.07903 -1.7964843e-17 -13.151575)
(375.266 1.0478824e-16 -11.282488)
(373.50218 0 -13.719682)
(371.81262 1.0408071e-16 -12.87533)
(369.51575 -3.4793176e-17 -14.744502)
(366.81713 1.1558058e-16 -14.85172)
(363.52945 1.2016315e-17 -16.43727)
(359.5149 2.0434726e-17 -17.283423)
(354.72721 1.1896767e-16 -18.83991)
(348.97035 0 -20.124833)
(342.24261 1.7496264e-16 -21.609933)
(334.50191 2.9437773e-17 -22.777015)
(325.9886 -2.7371043e-16 -23.563587)
(317.07893 0 -23.592523)
(308.3158 2.2238624e-17 -22.762586)
(300.17217 5.7371541e-16 -21.057561)
(292.97731 -2.4920267e-17 -18.674924)
(286.85522 7.6309751e-16 -15.879754)
(281.77717 -1.4655607e-17 -12.963795)
(277.62394 -8.9598971e-16 -10.159405)
(274.24191 0 -7.6409111)
(271.47703 1.057187e-15 -5.487535)
(269.26151 8.0057051e-16 -3.6797263)
(267.54119 1.7814701e-18 -2.2636098)
(266.15973 8.9516371e-16 -1.2229833)
(265.03282 -2.6488591e-15 -0.48291151)
(264.1124 -9.7279243e-16 0.020864533)
(263.36556 0 0.32967765)
(262.75093 1.0338787e-15 0.4779029)
(262.27715 0 0.52626873)
(261.74392 -3.2461277e-15 0.40296105)
(260.98947 -1.5603984e-15 0.16607652)
(260.57822 -1.7388841e-17 -0.082604458)
(260.429 -1.6031102e-15 -0.21840618)
(260.44545 -2.3440571e-15 -0.26293481)
(260.65205 1.689853e-15 -0.22030381)
(260.83384 0 -0.18230703)
(260.95749 -8.8103733e-16 -0.37913354)
(256.47308 1.8619127e-16 -8.1572204)
(301.34575 -1.3260403e-16 -8.5466398)
(330.49582 1.2150273e-16 -9.8792823)
(354.68983 -1.0284295e-16 -10.559581)
(372.8508 -6.7074685e-17 -12.197363)
(381.10713 6.3821025e-17 -11.423389)
(377.95724 5.4275946e-17 -13.371979)
(380.08459 1.0779647e-19 -11.050819)
(377.55457 -1.8750314e-17 -14.195937)
(378.62102 3.1258289e-17 -11.229046)
(376.70479 -2.613328e-17 -14.722057)
(376.73777 -2.1759969e-17 -11.991978)
(375.05251 7.2888394e-17 -15.137092)
(374.18173 -6.0653806e-17 -13.254199)
(372.35111 0 -15.730351)
(370.57344 0 -14.915355)
(368.17846 0 -16.803581)
(365.35301 0 -16.960608)
(361.91731 0 -18.562797)
(357.72282 -1.653589e-16 -19.453974)
(352.72544 -2.9232013e-16 -21.016998)
(346.73185 1.41299e-17 -22.30713)
(339.75067 0 -23.743679)
(331.77487 -3.4030041e-16 -24.808669)
(323.09541 1.6182438e-17 -25.407381)
(314.14043 4.3812543e-16 -25.18008)
(305.47234 0 -24.053843)
(297.54879 5.4081624e-18 -22.058506)
(290.6586 -4.7852705e-16 -19.423005)
(284.8809 1.1440991e-17 -16.428788)
(280.14827 -5.808114e-16 -13.366814)
(276.31464 8.7994143e-16 -10.460397)
(273.21012 4.3598588e-17 -7.8721713)
(270.67614 -1.6572744e-17 -5.6679464)
(268.65335 -2.5228359e-17 -3.8177789)
(267.09415 -1.1878121e-15 -2.3702894)
(265.83753 -1.7970847e-15 -1.3093718)
(264.80147 -1.0410711e-18 -0.55368323)