/*--------------------------------*- C++ -*----------------------------------*\
  =========                 |
  \\      /  F ield         | OpenFOAM: The Open Source CFD Toolbox
   \\    /   O peration     | Website:  https://openfoam.org
    \\  /    A nd           | Version:  8
     \\/     M anipulation  |
\*---------------------------------------------------------------------------*/
FoamFile
{
    version     2.0;
    format      ascii;
    class       volVectorField;
    location    "0.10999";
    object      wallShearStress;
}
// * * * * * * * * * * * * * * * * * * * * * * * * * * * * * * * * * * * * * //

dimensions      [1 -1 -2 0 0 0 0];

internalField   uniform (0 0 0);

boundaryField
{
    aerofoil
    {
        type            calculated;
        value           nonuniform List<vector> 
300
(
(-152.84874 -1.7462064e-16 -8.3498466)
(-155.97919 -1.7907074e-16 -7.9097059)
(-157.35678 -1.8318105e-16 -7.3435299)
(-158.67867 -9.3699596e-17 -6.7469983)
(-159.95605 9.5149544e-17 -6.1341857)
(-161.20668 7.6361593e-19 -5.5026688)
(-162.33786 -4.8477545e-17 -4.8702517)
(-163.41277 -3.2692321e-18 -4.1794937)
(-164.44039 -2.458717e-17 -3.3845099)
(-165.45845 -1.5089756e-17 -2.6160388)
(-166.43463 2.1034588e-18 -1.8118447)
(-167.39343 1.5634147e-17 -0.97977536)
(-168.34865 -6.0851142e-17 -0.18745197)
(-169.28253 -5.470738e-17 0.59830183)
(-170.2058 -3.7129955e-18 1.4226113)
(-171.11851 5.7036309e-17 2.2760847)
(-172.0012 -1.2516231e-16 3.155543)
(-172.86825 -1.6434569e-20 4.0622186)
(-173.7084 4.3039582e-18 4.993203)
(-174.53384 4.8148249e-35 5.9520005)
(-175.34522 2.7072935e-16 6.9398575)
(-176.13276 4.2710439e-18 7.9566666)
(-176.89829 -4.4275445e-18 9.0107789)
(-177.62684 9.6296497e-35 10.095754)
(-178.34358 1.4645669e-16 11.218551)
(-179.01434 -1.4932509e-16 12.371928)
(-179.63988 3.1401241e-16 13.559668)
(-180.22883 -3.1051503e-16 14.787819)
(-180.77292 -1.9743264e-17 16.053538)
(-181.3002 3.3262807e-16 17.367072)
(-181.82197 -2.0903825e-20 18.731944)
(-182.35099 -9.6296497e-34 20.151683)
(-182.89523 3.419036e-16 21.62922)
(-183.46476 3.4850826e-16 23.171853)
(-184.07158 -3.6617439e-16 24.790484)
(-184.72718 3.7398644e-16 26.489897)
(-185.42143 -1.7333369e-33 28.270975)
(-186.1327 1.1784359e-17 30.142235)
(-186.86051 -1.4272409e-18 32.117174)
(-187.59006 7.7008258e-16 34.202631)
(-188.29342 -1.9177441e-18 36.399118)
(-188.93822 5.8387608e-20 38.713895)
(-189.50793 4.2185241e-16 41.174137)
(-190.03888 4.0728011e-16 43.802531)
(-190.51295 1.3530298e-17 46.604757)
(-190.97227 -1.12838e-17 49.585701)
(-191.33058 -4.5193098e-16 52.691176)
(-191.54452 4.3431784e-16 55.96489)
(-191.53254 1.0280042e-17 59.401239)
(-191.18787 4.6924352e-16 62.996699)
(-190.42287 1.540744e-33 66.757374)
(-189.12167 -6.2308615e-20 70.682875)
(-187.15977 -4.7170773e-16 74.787515)
(-184.49001 -1.3862043e-18 79.096778)
(-181.05771 -7.7220739e-18 83.636337)
(-176.80977 -1.6025585e-17 88.454323)
(-171.74268 1.6228484e-17 93.639628)
(-165.92779 -5.4191264e-16 99.228604)
(-159.45242 1.9382007e-17 105.19728)
(-152.9063 5.1618875e-16 111.42011)
(-147.1753 5.1717527e-17 117.69471)
(-141.87566 -1.7794172e-17 123.93736)
(-136.32205 -3.7099773e-19 129.85237)
(-129.68229 1.9659823e-17 134.99155)
(-121.46505 1.203572e-15 138.62397)
(-111.57702 6.4168832e-16 140.63882)
(-100.05757 6.4228167e-16 140.50917)
(-86.605011 6.1629758e-33 137.23241)
(-71.772733 -1.5352389e-18 130.49685)
(-56.143034 -3.4360802e-16 119.48236)
(-40.651887 5.216454e-18 103.92168)
(-26.331305 -3.4051383e-16 84.197485)
(-14.691086 -9.1907139e-19 61.549612)
(-7.4418612 -1.6175132e-16 37.607139)
(-3.3017159 -7.2721686e-17 17.576427)
(-13.663028 8.1142936e-16 -2.37868)
(-17.498554 0 -3.5243756)
(-20.74733 3.5058513e-20 -4.2214596)
(-24.15683 1.2083151e-15 -4.8702914)
(-27.185267 -1.2479767e-15 -5.4305911)
(-30.059 2.5635179e-15 -5.9503308)
(-32.725182 1.3097132e-15 -6.4204902)
(-35.233755 6.6678039e-16 -6.8523573)
(-37.589992 0 -7.2471247)
(-39.811002 -1.8535376e-19 -7.6102775)
(-41.911456 -6.9353507e-16 -7.9443536)
(-43.897698 -1.8163664e-19 -8.251172)
(-45.777186 -7.0636071e-16 -8.533471)
(-47.558051 -7.1191203e-16 -8.7934763)
(-49.245589 -1.4324448e-15 -9.0315384)
(-50.844805 -7.2029554e-16 -9.2501739)
(-52.368286 -7.2375748e-16 -9.4515522)
(-53.825547 1.4763456e-19 -9.6370855)
(-55.2267 1.477033e-19 -9.8096408)
(-56.580027 -7.3269966e-16 -9.9700416)
(-57.884958 2.0800043e-32 -10.11939)
(-59.144286 7.3693689e-16 -10.257179)
(-60.361409 -1.4063878e-21 -10.385355)
(-61.543365 7.40394e-16 -10.503535)
(-62.687495 7.4212258e-16 -10.613085)
(-63.796597 0 -10.713032)
(-64.870651 7.4443336e-16 -10.805032)
(-65.915327 1.7472295e-25 -10.888141)
(-66.927635 7.1030545e-22 -10.963778)
(-67.91577 -5.6141453e-21 -11.031758)
(-68.88451 7.4751813e-16 -11.093313)
(-69.843804 7.4825173e-16 -11.151258)
(-70.795435 -3.5795155e-22 -11.203198)
(-71.72743 2.6427715e-19 -11.248645)
(-72.641357 2.2275157e-19 -11.287711)
(-73.540738 2.0066048e-25 -11.321065)
(-74.427985 -7.4965996e-16 -11.348235)
(-75.298379 7.4968979e-16 -11.368782)
(-76.146194 2.1028768e-25 -11.381458)
(-76.969723 2.78309e-19 -11.387005)
(-77.778611 1.1815729e-19 -11.385694)
(-78.579665 -1.2117765e-19 -11.378185)
(-79.374868 -1.4126255e-19 -11.364786)
(-80.161432 1.4237315e-21 -11.345747)
(-80.941622 2.6757369e-19 -11.319699)
(-81.714489 -1.2502486e-19 -11.287289)
(-82.476104 7.4598444e-16 -11.246963)
(-83.209521 -1.3179343e-19 -11.196227)
(-83.890328 -1.3675807e-19 -11.132797)
(-84.496043 -1.4117619e-19 -11.054632)
(-85.013201 1.3779786e-19 -10.960049)
(-85.45464 -7.406837e-16 -10.850444)
(-85.871038 7.3883508e-16 -10.732468)
(-86.339471 -7.3700853e-16 -10.613199)
(-86.917797 -7.3531612e-16 -10.496896)
(-87.630119 1.4672005e-19 -10.385679)
(-88.412675 -5.6022654e-21 -10.272461)
(-89.056492 2.6151835e-25 -10.134883)
(-89.234405 1.3559911e-19 -9.9381536)
(-88.562064 -5.5251199e-21 -9.6520084)
(-86.857326 -7.1939057e-16 -9.262851)
(-84.272645 1.5207858e-25 -8.7928455)
(-80.941781 -2.8062284e-20 -8.2696617)
(-77.041855 -3.4579197e-16 -7.717743)
(-73.457529 5.807206e-20 -7.1957708)
(-72.168139 -5.4448589e-20 -6.8502555)
(-75.490114 3.3071608e-16 -6.8743834)
(-84.759294 3.2893434e-16 -7.3249598)
(-98.91991 -3.2786108e-16 -8.0596479)
(-114.44616 3.2671009e-16 -8.8386935)
(-128.15517 3.2561424e-16 -9.4261449)
(-138.42698 -3.2501006e-16 -9.6974307)
(-145.31344 3.3931354e-20 -9.6742455)
(-149.88217 -1.1933621e-20 -9.4145052)
(-151.12185 3.247453e-16 -8.8649659)
(-135.23083 1.7167979e-20 -8.417519)
(-135.31992 -9.2641418e-23 -8.9361505)
(-136.83778 -2.2280323e-16 -9.5915392)
(-138.19091 -2.2606688e-16 -10.256523)
(-139.56713 8.6476807e-20 -10.940098)
(-140.90906 -1.8537613e-18 -11.646801)
(-142.19874 1.9584894e-18 -12.367802)
(-143.4577 -1.9579496e-20 -13.110062)
(-144.67074 2.9387359e-39 -13.867113)
(-145.82951 1.0313062e-21 -14.643983)
(-146.93907 2.1456982e-19 -15.440077)
(-148.04163 -1.3506752e-19 -16.256162)
(-149.12499 -1.0988857e-15 -17.096099)
(-150.16517 1.1174532e-15 -17.952516)
(-151.16848 -5.7040368e-16 -18.829583)
(-152.12925 -5.8677414e-16 -19.728903)
(-153.03956 -5.9864916e-16 -20.64572)
(-153.90357 -6.1564628e-16 -21.582666)
(-154.7116 6.2820296e-16 -22.535976)
(-155.47728 -6.3579755e-16 -23.510575)
(-156.19011 -2.1831889e-21 -24.505509)
(-156.84345 -6.6165496e-16 -25.519082)
(-157.44077 -5.5099573e-18 -26.553871)
(-157.96509 -6.8190547e-16 -27.604478)
(-158.4252 -1.396049e-15 -28.681432)
(-158.80654 7.0892776e-16 -29.776604)
(-159.12712 2.1700495e-19 -30.897762)
(-159.40343 1.1623533e-17 -32.049343)
(-159.64782 -2.3651575e-17 -33.231819)
(-159.88598 3.9775716e-16 -34.455698)
(-160.11777 1.540744e-33 -35.726683)
(-160.32708 0 -37.040286)
(-160.54667 8.3460099e-35 -38.405454)
(-160.78745 -8.0889058e-33 -39.830586)
(-161.02723 -8.4899649e-16 -41.321592)
(-161.24621 -1.1580208e-18 -42.878034)
(-161.41547 -4.2692326e-16 -44.490159)
(-161.51335 -1.3990132e-17 -46.157209)
(-161.51228 -4.7137532e-16 -47.887718)
(-161.43438 -4.5260671e-16 -49.693546)
(-161.2639 -4.7439904e-16 -51.576916)
(-161.00959 4.8447001e-16 -53.549697)
(-160.68958 5.1311481e-16 -55.627384)
(-160.33763 -3.1427728e-17 -57.80687)
(-159.8844 5.4521912e-16 -60.068351)
(-159.26583 -3.2112224e-17 -62.41513)
(-158.41379 2.0348157e-17 -64.831658)
(-157.28618 3.0814879e-33 -67.321873)
(-155.82193 5.5530723e-16 -69.868922)
(-153.97731 5.6087957e-16 -72.495313)
(-151.73664 -1.7897485e-17 -75.253285)
(-149.08545 2.0044326e-17 -78.16493)
(-145.95673 -1.1843156e-15 -81.170065)
(-142.33813 -5.9516665e-16 -84.214308)
(-138.27132 -1.2504022e-17 -87.37598)
(-133.83169 6.2156418e-16 -90.580706)
(-129.2472 -1.9922603e-17 -93.776883)
(-124.83835 7.4214223e-18 -96.886251)
(-120.32216 6.7988339e-16 -99.787909)
(-115.42893 -6.4702725e-16 -102.28197)
(-109.82307 -7.2324142e-16 -104.21818)
(-103.33499 1.0235322e-17 -105.32738)
(-95.929435 -1.40391e-15 -105.43135)
(-87.509224 7.0826751e-16 -104.31174)
(-78.050289 -7.290641e-16 -101.66863)
(-67.614888 1.8088645e-17 -97.109626)
(-56.453479 0 -90.309956)
(-44.956047 3.7327282e-16 -80.911219)
(-33.602908 3.4802905e-16 -68.700676)
(-22.619425 6.9880246e-16 -53.725165)
(-12.546614 3.3112251e-16 -36.398858)
(-6.1285515 -4.6469382e-18 -18.05352)
(-2.5408181 -1.1407745e-16 -6.465522)
(-0.81372616 -3.0839017e-17 -0.094266809)
(-1.5289559 -2.2661531e-19 5.5599087)
(-28.974777 -1.2037062e-35 4.2524807)
(-49.141828 0 3.8956879)
(-52.583267 -7.5566214e-16 4.2952562)
(-56.754034 7.6800953e-16 4.5537937)
(-59.847893 7.7516587e-16 4.7063211)
(-62.671121 1.7990163e-19 4.8298668)
(-65.098917 2.3491307e-19 4.915374)
(-67.278743 1.0191289e-25 4.9765881)
(-69.226838 -1.5064143e-21 5.0152279)
(-70.99339 3.9682962e-16 5.0373656)
(-72.608567 7.3685807e-21 5.0446239)
(-74.094378 -2.5364047e-19 5.0391679)
(-75.467306 3.9911591e-16 5.0239812)
(-76.747032 -5.0971417e-19 5.0006217)
(-77.947038 -3.9980717e-16 4.9692623)
(-79.077244 -3.9999002e-16 4.9319933)
(-80.15194 -7.999779e-16 4.8893408)
(-81.176408 -4.0018378e-16 4.8410257)
(-82.153294 -4.0020772e-16 4.7887366)
(-83.087607 -2.4870504e-19 4.7318181)
(-83.982696 -1.5289589e-21 4.6714761)
(-84.846268 -1.5234315e-21 4.6067977)
(-85.681129 -3.9995455e-16 4.5395202)
(-86.49387 -3.9989866e-16 4.468172)
(-87.283314 3.054589e-21 4.3944896)
(-88.0537 3.9953918e-16 4.3169083)
(-88.803913 3.9904289e-16 4.2372485)
(-89.540413 -1.5250003e-21 4.1535031)
(-90.260656 -3.9898967e-16 4.0674611)
(-90.970134 3.3935468e-19 3.9776539)
(-91.668415 -3.9881862e-16 3.8845373)
(-92.366706 -3.9833024e-16 3.7900097)
(-93.07103 -3.9809577e-16 3.6911503)
(-93.770964 7.9606197e-16 3.5891047)
(-94.46758 -3.9733203e-16 3.4836697)
(-95.162858 -3.9699011e-16 3.3751724)
(-95.859947 -3.9708442e-16 3.262706)
(-96.557561 -3.0325767e-21 3.1463482)
(-97.255084 -3.9655068e-16 3.0252943)
(-97.95135 3.6507641e-19 2.9005622)
(-98.650731 -1.9786576e-16 2.7706048)
(-99.352616 -1.4477421e-19 2.6355126)
(-100.05709 -1.8400618e-19 2.4951024)
(-100.76641 3.9524434e-16 2.3500856)
(-101.48768 3.407201e-19 2.1986378)
(-102.22427 -1.9753021e-16 2.0417676)
(-102.98157 -1.974338e-16 1.8784843)
(-103.75421 3.940997e-16 1.7083745)
(-104.53933 -1.4571109e-19 1.5312616)
(-105.34096 -2.0458935e-19 1.3476117)
(-106.16312 1.9692298e-16 1.1554087)
(-106.99846 1.9669365e-16 0.95406091)
(-107.84295 -4.8600461e-20 0.744968)
(-108.69842 1.5674173e-19 0.5262785)
(-109.56341 -1.9618453e-16 0.29677285)
(-110.44315 -1.2037062e-35 0.057474502)
(-111.34579 -9.8388623e-17 -0.19099219)
(-112.27083 -2.9110618e-21 -0.44445577)
(-113.21897 2.2128636e-19 -0.7092621)
(-114.19257 -2.4283058e-19 -0.99928618)
(-115.19881 -2.3272388e-19 -1.3256259)
(-116.23371 1.4445995e-25 -1.6537235)
(-117.29772 -7.3122939e-21 -2.0051115)
(-118.38603 -2.4490479e-17 -2.3780524)
(-119.49877 8.1012009e-20 -2.7403241)
(-120.62661 -4.9230097e-17 -3.1185146)
(-121.76975 -5.4499429e-21 -3.5198923)
(-122.93295 9.8161492e-17 -3.9441702)
(-124.12365 -2.3962141e-20 -4.3910933)
(-125.35348 1.1467245e-20 -4.8631072)
(-126.61943 -1.2004559e-20 -5.3618227)
(-127.91577 6.4043975e-20 -5.8873082)
(-129.23532 2.2351381e-20 -6.4454473)
(-130.60617 -1.9642914e-16 -7.0443523)
(-133.46596 1.9578272e-16 -7.7605114)
)
;
    }
    inlet
    {
        type            calculated;
        value           uniform (0 0 0);
    }
    outlet
    {
        type            calculated;
        value           uniform (0 0 0);
    }
    back
    {
        type            empty;
    }
    front
    {
        type            empty;
    }
}


// ************************************************************************* //
