/*--------------------------------*- C++ -*----------------------------------*\
  =========                 |
  \\      /  F ield         | OpenFOAM: The Open Source CFD Toolbox
   \\    /   O peration     | Website:  https://openfoam.org
    \\  /    A nd           | Version:  8
     \\/     M anipulation  |
\*---------------------------------------------------------------------------*/
FoamFile
{
    version     2.0;
    format      ascii;
    class       volScalarField;
    location    "0.10999";
    object      yPlus;
}
// * * * * * * * * * * * * * * * * * * * * * * * * * * * * * * * * * * * * * //

dimensions      [0 0 0 0 0 0 0];

internalField   uniform 0;

boundaryField
{
    aerofoil
    {
        type            calculated;
        value           nonuniform List<scalar> 
300
(
124.90853
124.82406
124.48451
124.17914
123.89423
123.68214
123.45364
123.25774
123.07796
122.93682
122.80897
122.70673
122.63698
122.58903
122.56418
122.56685
122.58339
122.62377
122.67899
122.75401
122.84977
122.95934
123.08814
123.21984
123.37491
123.53576
123.69947
123.87628
124.05517
124.2511
124.46814
124.71347
124.9879
125.29325
125.63854
126.03157
126.46499
126.92992
127.42994
127.96572
128.52624
129.10297
129.68898
130.31236
130.95634
131.66499
132.37794
133.1037
133.82211
134.49797
135.11067
135.64417
136.07162
136.3987
136.63874
136.80703
136.95076
137.17927
137.53334
138.2908
139.75001
141.85175
144.39935
147.06451
149.42674
151.42152
152.91541
153.17772
151.90627
148.20805
141.0481
129.37647
112.29541
88.514558
60.53485
41.964789
54.005974
58.7003
63.178397
66.83271
70.089113
72.940552
75.49263
77.786663
79.861505
81.752747
83.480355
85.063626
86.51905
87.860108
89.096769
90.244671
91.315988
92.321501
93.27126
94.166718
95.012876
95.812444
96.574005
97.295141
97.980828
98.630314
99.250607
99.838199
100.40078
100.94086
101.46515
101.97706
102.46793
102.93905
103.39248
103.83025
104.25056
104.65009
105.02676
105.3864
105.73391
106.0705
106.39476
106.70736
107.00766
107.29381
107.5576
107.78397
107.96277
108.08349
108.15295
108.19254
108.24565
108.34296
108.4955
108.68096
108.80135
108.68834
108.15803
107.04952
105.40636
103.28908
100.73114
98.162198
96.65904
97.657493
101.46996
107.18064
112.73116
117.21668
120.44437
122.4862
123.91217
124.64887
131.71211
131.12346
130.84844
130.52051
130.23998
129.9941
129.7567
129.55184
129.36317
129.19512
129.03751
128.91162
128.81891
128.74268
128.68586
128.64957
128.62642
128.62268
128.6272
128.64688
128.67896
128.7157
128.76342
128.80426
128.8538
128.89755
128.94381
129.00122
129.07083
129.16394
129.28865
129.43369
129.60929
129.81802
130.05564
130.31885
130.59304
130.86724
131.13195
131.39874
131.66222
131.92847
132.20443
132.51972
132.82775
133.12574
133.37578
133.57287
133.70087
133.74895
133.72796
133.6667
133.55369
133.37088
133.18301
133.02456
132.98998
133.24504
133.6528
134.11706
134.46688
134.56276
134.34511
133.67546
132.35661
130.11173
126.6269
121.36597
113.59244
102.14307
85.373484
61.290612
37.385604
9.8645312
33.985558
78.764287
89.080836
91.881038
95.163847
97.418898
99.42988
101.08451
102.52985
103.78239
104.88896
105.87512
106.76222
107.56282
108.29337
108.96555
109.58618
110.16542
110.70905
111.21787
111.69695
112.14736
112.57642
112.98359
113.37588
113.75014
114.112
114.45816
114.7954
115.11965
115.43641
115.74403
116.04706
116.35273
116.65328
116.94985
117.2424
117.53329
117.82187
118.10852
118.39083
118.67276
118.95351
119.23348
119.51288
119.79644
120.08385
120.37987
120.68191
120.98798
121.29859
121.61724
121.94031
122.26433
122.59096
122.91934
123.25025
123.58934
123.93478
124.28899
124.65191
125.03052
125.41896
125.82082
126.23125
126.65162
127.07623
127.50449
127.93958
128.3834
128.84381
129.3215
129.81233
130.3162
130.82713
131.51226
)
;
    }
    inlet
    {
        type            calculated;
        value           uniform 0;
    }
    outlet
    {
        type            calculated;
        value           uniform 0;
    }
    back
    {
        type            empty;
    }
    front
    {
        type            empty;
    }
}


// ************************************************************************* //
