/*--------------------------------*- C++ -*----------------------------------*\
  =========                 |
  \\      /  F ield         | OpenFOAM: The Open Source CFD Toolbox
   \\    /   O peration     | Website:  https://openfoam.org
    \\  /    A nd           | Version:  8
     \\/     M anipulation  |
\*---------------------------------------------------------------------------*/
FoamFile
{
    version     2.0;
    format      ascii;
    class       volScalarField;
    location    "0.0900078";
    object      alphat;
}
// * * * * * * * * * * * * * * * * * * * * * * * * * * * * * * * * * * * * * //

dimensions      [1 -1 -1 0 0 0 0];

internalField   nonuniform List<scalar> 
20000
(
0.0010599604
0.0025417688
0.0033024287
0.0034185168
0.0027993038
0.00099339208
5.8402508e-06
5.1342069e-09
4.3983828e-09
4.3608046e-09
4.209063e-09
4.2403502e-09
4.1601623e-09
4.2026624e-09
4.1943201e-09
4.2414002e-09
4.2653738e-09
4.3217608e-09
4.3746372e-09
4.4540926e-09
4.542243e-09
4.657358e-09
4.7912789e-09
4.9557311e-09
5.1496675e-09
5.383576e-09
5.6693294e-09
5.9827976e-09
6.3186607e-09
6.659245e-09
6.9916066e-09
7.3007266e-09
7.5757144e-09
7.8121255e-09
8.0087265e-09
8.1681374e-09
8.2932956e-09
8.3916669e-09
8.4681269e-09
8.5278758e-09
8.5722091e-09
8.610038e-09
8.6458731e-09
8.6807138e-09
8.7017664e-09
8.7100961e-09
8.7111843e-09
8.6646331e-09
8.6318309e-09
8.6254398e-09
0.0010536322
0.0024913531
0.0031953368
0.0032525889
0.0025748336
0.00079404658
1.2817029e-06
4.8780513e-09
4.2926168e-09
4.2609002e-09
4.1148879e-09
4.1478133e-09
4.0701035e-09
4.11335e-09
4.1064798e-09
4.1544678e-09
4.1800661e-09
4.2381419e-09
4.2935019e-09
4.3756515e-09
4.4671109e-09
4.5858392e-09
4.7248774e-09
4.8966818e-09
5.102119e-09
5.3533379e-09
5.6534659e-09
5.9807347e-09
6.3214058e-09
6.6694425e-09
7.0053676e-09
7.3151527e-09
7.5891047e-09
7.823545e-09
8.0178286e-09
8.1752402e-09
8.2987189e-09
8.395924e-09
8.4716453e-09
8.5307269e-09
8.5745918e-09
8.6122897e-09
8.6496807e-09
8.6836258e-09
8.7034614e-09
8.7114012e-09
8.7097959e-09
8.6630357e-09
8.6311951e-09
8.6259106e-09
0.001042488
0.002434863
0.0030907902
0.0031005843
0.0023527252
0.00062411489
3.0581555e-07
4.7002817e-09
4.1929528e-09
4.1664688e-09
4.0264908e-09
4.060892e-09
3.9857473e-09
4.0295135e-09
4.0242796e-09
4.0731497e-09
4.1005107e-09
4.1603486e-09
4.2179993e-09
4.3025253e-09
4.3970092e-09
4.519602e-09
4.6649354e-09
4.8466517e-09
5.0680697e-09
5.3414146e-09
5.6516395e-09
5.9821049e-09
6.3327323e-09
6.6857363e-09
7.0239871e-09
7.333622e-09
7.605536e-09
7.837121e-09
8.0283886e-09
8.1832187e-09
8.3046008e-09
8.4004417e-09
8.4753835e-09
8.5338143e-09
8.5772727e-09
8.6150757e-09
8.6543355e-09
8.6880955e-09
8.7067109e-09
8.7133351e-09
8.7070168e-09
8.6582046e-09
8.631582e-09
8.6256094e-09
0.0010319116
0.0023796077
0.0029875455
0.0029480122
0.0021300374
0.00048343132
8.7136113e-08
4.5605522e-09
4.1001834e-09
4.0784351e-09
3.9440389e-09
3.9799143e-09
3.9073105e-09
3.9518002e-09
3.9483575e-09
3.9983877e-09
4.0277451e-09
4.0894471e-09
4.1494868e-09
4.2364684e-09
4.3344688e-09
4.4624281e-09
4.6169895e-09
4.812983e-09
5.0549677e-09
5.3376246e-09
5.6514982e-09
5.9945713e-09
6.3531258e-09
6.7111436e-09
7.0506625e-09
7.3587301e-09
7.6273902e-09
7.8550347e-09
8.0423714e-09
8.1938411e-09
8.3125216e-09
8.4064818e-09
8.4801795e-09
8.5375861e-09
8.5803579e-09
8.6182109e-09
8.6589054e-09
8.6914262e-09
8.7091451e-09
8.7155208e-09
8.703004e-09
8.6566261e-09
8.6314936e-09
8.6255524e-09
0.0010208523
0.0023245386
0.0028865834
0.0028038105
0.0019098712
0.00036199414
3.0958839e-08
4.4439259e-09
4.0153487e-09
3.998162e-09
3.8691328e-09
3.9065758e-09
3.8364811e-09
3.8818299e-09
3.8803096e-09
3.9316128e-09
3.9629945e-09
4.0266029e-09
4.0891199e-09
4.1790243e-09
4.2817574e-09
4.4176801e-09
4.5856946e-09
4.799398e-09
5.050337e-09
5.3380854e-09
5.6635304e-09
6.0165126e-09
6.3828819e-09
6.7443247e-09
7.0837465e-09
7.3890124e-09
7.6532717e-09
7.8760098e-09
8.058641e-09
8.2061183e-09
8.3216154e-09
8.4133514e-09
8.4855567e-09
8.5417508e-09
8.5837854e-09
8.6218479e-09
8.6635434e-09
8.694857e-09
8.7116898e-09
8.7176318e-09
8.6986641e-09
8.654465e-09
8.6312679e-09
8.6255012e-09
0.0010101437
0.0022717266
0.0027849343
0.0026586012
0.001693295
0.00025782024
1.4359556e-08
4.3436054e-09
3.9394132e-09
3.9264764e-09
3.8024795e-09
3.8415531e-09
3.7739463e-09
3.8203317e-09
3.8208025e-09
3.8734088e-09
3.9067787e-09
3.9723816e-09
4.0380464e-09
4.1322676e-09
4.2422544e-09
4.3907165e-09
4.5732069e-09
4.79467e-09
5.0505442e-09
5.3494334e-09
5.6858489e-09
6.0493035e-09
6.4220325e-09
6.7857645e-09
7.123701e-09
7.4248068e-09
7.6834928e-09
7.9003477e-09
8.0774847e-09
8.2203266e-09
8.3321433e-09
8.4212704e-09
8.4916545e-09
8.5463816e-09
8.5876223e-09
8.626075e-09
8.6681774e-09
8.6979205e-09
8.7137874e-09
8.719442e-09
8.6939306e-09
8.652708e-09
8.6308295e-09
8.6255147e-09
0.00099957118
0.0022215309
0.0026900666
0.0025175183
0.0014846832
0.00016773055
8.5753655e-09
4.2569817e-09
3.8727892e-09
3.8638704e-09
3.7446421e-09
3.7854741e-09
3.7203195e-09
3.7678179e-09
3.7702295e-09
3.8241207e-09
3.8595864e-09
3.9276627e-09
3.9978262e-09
4.0987413e-09
4.2206956e-09
4.3799466e-09
4.5690264e-09
4.7947125e-09
5.0609801e-09
5.3718958e-09
5.7200416e-09
6.0924993e-09
6.4704681e-09
6.8349581e-09
7.1699382e-09
7.465559e-09
7.7175407e-09
7.9276024e-09
8.0985272e-09
8.2361609e-09
8.3438619e-09
8.4300499e-09
8.4983354e-09
8.5513908e-09
8.5918672e-09
8.6310198e-09
8.6729101e-09
8.7008223e-09
8.7154916e-09
8.7205278e-09
8.689476e-09
8.6508267e-09
8.6303139e-09
8.6255286e-09
0.00098963777
0.0021741106
0.0026014184
0.0023816648
0.0012856118
9.1844482e-05
6.2329989e-09
4.1813678e-09
3.8152632e-09
3.810326e-09
3.6957199e-09
3.7384418e-09
3.6755979e-09
3.7241818e-09
3.728512e-09
3.783936e-09
3.8222821e-09
3.8940618e-09
3.9709044e-09
4.0821725e-09
4.2121731e-09
4.3766875e-09
4.5691514e-09
4.8044718e-09
5.0828054e-09
5.4062715e-09
5.7654902e-09
6.1461675e-09
6.5279257e-09
6.8916806e-09
7.2222122e-09
7.5110213e-09
7.7552037e-09
7.9576102e-09
8.1216504e-09
8.2535447e-09
8.3567277e-09
8.4396651e-09
8.5055677e-09
8.5567529e-09
8.5965269e-09
8.636766e-09
8.6777207e-09
8.7035117e-09
8.7168113e-09
8.7209982e-09
8.6853118e-09
8.6490653e-09
8.6297204e-09
8.6255569e-09
0.00097974857
0.0021286185
0.0025155024
0.0022483312
0.0010985223
3.8667265e-05
5.1740519e-09
4.1170833e-09
3.7670393e-09
3.7659297e-09
3.655621e-09
3.7001389e-09
3.6393691e-09
3.6891304e-09
3.6958332e-09
3.7535846e-09
3.796386e-09
3.8752165e-09
3.9597218e-09
4.0756442e-09
4.2100652e-09
4.3770157e-09
4.5789743e-09
4.8255036e-09
5.1164992e-09
5.4524243e-09
5.8223068e-09
6.2099608e-09
6.5940429e-09
6.955449e-09
7.2800275e-09
7.5607362e-09
7.7960834e-09
7.9900447e-09
8.146596e-09
8.2722812e-09
8.3705967e-09
8.4500153e-09
8.5132723e-09
8.5624128e-09
8.6015646e-09
8.6432586e-09
8.6826069e-09
8.7061126e-09
8.7178856e-09
8.7211145e-09
8.6814725e-09
8.647357e-09
8.6291555e-09
8.6255893e-09
0.00097017971
0.0020847465
0.0024325571
0.0021158364
0.00092514214
1.2396386e-05
4.6570192e-09
4.0656668e-09
3.7277401e-09
3.7301181e-09
3.6235985e-09
3.6698006e-09
3.6112963e-09
3.6629491e-09
3.673242e-09
3.7357673e-09
3.7844587e-09
3.8675571e-09
3.9554976e-09
4.0742033e-09
4.2110608e-09
4.3873253e-09
4.5994704e-09
4.8580086e-09
5.161965e-09
5.5102543e-09
5.8900602e-09
6.2835046e-09
6.6683353e-09
7.0257725e-09
7.3429104e-09
7.6142784e-09
7.8398242e-09
8.0246223e-09
8.1731462e-09
8.29221e-09
8.3853548e-09
8.4610271e-09
8.5213994e-09
8.5683366e-09
8.6069139e-09
8.6501134e-09
8.6876131e-09
8.7089657e-09
8.7188584e-09
8.7210445e-09
8.6779572e-09
8.6457766e-09
8.6286366e-09
8.6255842e-09
0.00096126127
0.0020427912
0.0023521681
0.0019846543
0.00076719344
3.3661281e-06
4.389844e-09
4.023877e-09
3.6968843e-09
3.7022804e-09
3.5991067e-09
3.6474316e-09
3.593086e-09
3.648464e-09
3.662936e-09
3.7282803e-09
3.7797046e-09
3.8653239e-09
3.9550697e-09
4.0772832e-09
4.2227535e-09
4.4075742e-09
4.6310021e-09
4.9020156e-09
5.2191366e-09
5.5795289e-09
5.9684685e-09
6.3663254e-09
6.7502667e-09
7.1020754e-09
7.4103099e-09
7.6711583e-09
7.8860162e-09
8.0610152e-09
8.2010476e-09
8.3131415e-09
8.400863e-09
8.4726051e-09
8.5299006e-09
8.5745024e-09
8.6125111e-09
8.6568737e-09
8.692617e-09
8.7122043e-09
8.7199725e-09
8.7201476e-09
8.674758e-09
8.6443172e-09
8.6281531e-09
8.6255538e-09
0.00095268646
0.0020027068
0.0022738052
0.0018544615
0.00062543758
8.8501838e-07
4.2424726e-09
3.9907082e-09
3.6735813e-09
3.6833944e-09
3.5844545e-09
3.636369e-09
3.5851891e-09
3.6421928e-09
3.6587473e-09
3.725768e-09
3.7786769e-09
3.8655505e-09
3.9606724e-09
4.0899198e-09
4.2432712e-09
4.4382249e-09
4.6733346e-09
4.9572826e-09
5.2877232e-09
5.6598959e-09
6.0570264e-09
6.4578559e-09
6.8392084e-09
7.1837388e-09
7.4816572e-09
7.7308853e-09
7.9342572e-09
8.0989064e-09
8.2300563e-09
8.3348942e-09
8.4169866e-09
8.4846461e-09
8.5387146e-09
8.580914e-09
8.6183181e-09
8.6633092e-09
8.6972791e-09
8.7153855e-09
8.7219497e-09
8.7175206e-09
8.6718185e-09
8.6429575e-09
8.6276988e-09
8.6255154e-09
0.00094481652
0.0019649986
0.002197764
0.0017211072
0.00050034809
2.5193546e-07
4.1584586e-09
3.9665539e-09
3.6600076e-09
3.6724504e-09
3.5796326e-09
3.6284082e-09
3.582092e-09
3.6398457e-09
3.657751e-09
3.7254462e-09
3.7817611e-09
3.8738111e-09
3.974848e-09
4.1110652e-09
4.2736549e-09
4.4789678e-09
4.7263707e-09
5.0236874e-09
5.3675416e-09
5.7510505e-09
6.1552849e-09
6.5575103e-09
6.9345073e-09
7.2701088e-09
7.5563531e-09
7.7929442e-09
7.9841261e-09
8.1379647e-09
8.2599181e-09
8.3572785e-09
8.4335858e-09
8.4970327e-09
8.5476989e-09
8.5875927e-09
8.6243544e-09
8.6693603e-09
8.7015366e-09
8.7183811e-09
8.7243111e-09
8.7135257e-09
8.6690743e-09
8.6416539e-09
8.6272654e-09
8.6254826e-09
0.00093746894
0.0019294323
0.0021278842
0.0015843915
0.00039465009
8.5361851e-08
4.121995e-09
3.9513431e-09
3.6554822e-09
3.6654372e-09
3.5723238e-09
3.6193252e-09
3.581088e-09
3.6394503e-09
3.6603075e-09
3.7316554e-09
3.7925668e-09
3.8894112e-09
3.9971186e-09
4.1411407e-09
4.3131914e-09
4.5295904e-09
4.789835e-09
5.1009368e-09
5.4582628e-09
5.8525284e-09
6.262644e-09
6.6645943e-09
7.0354423e-09
7.3605009e-09
7.6337918e-09
7.8568276e-09
8.0352154e-09
8.1778735e-09
8.2903913e-09
8.3801122e-09
8.4505269e-09
8.509687e-09
8.5569884e-09
8.5945298e-09
8.6307025e-09
8.6751029e-09
8.7053821e-09
8.721032e-09
8.72647e-09
8.7090061e-09
8.6662925e-09
8.6403685e-09
8.626846e-09
8.6254594e-09
0.00093053017
0.0018948296
0.0020623473
0.0014432193
0.00030225811
3.5181307e-08
4.1046891e-09
3.9423727e-09
3.6488407e-09
3.6591137e-09
3.564321e-09
3.6124333e-09
3.583886e-09
3.6453336e-09
3.6699255e-09
3.7446544e-09
3.8104167e-09
3.9128366e-09
4.0275517e-09
4.1797064e-09
4.3619033e-09
4.5899365e-09
4.8636388e-09
5.1889488e-09
5.559691e-09
5.9639732e-09
6.3785698e-09
6.7784363e-09
7.1412983e-09
7.4542262e-09
7.7133599e-09
7.9220221e-09
8.0871153e-09
8.2183148e-09
8.3212339e-09
8.4032131e-09
8.4676735e-09
8.5224902e-09
8.5663881e-09
8.6017506e-09
8.6374887e-09
8.6806465e-09
8.708824e-09
8.7232054e-09
8.7281072e-09
8.7039365e-09
8.6634901e-09
8.6390943e-09
8.626438e-09
8.6254403e-09
0.00092366608
0.001860377
0.0019953829
0.0012983757
0.00021978975
1.7887505e-08
4.0903762e-09
3.9376033e-09
3.6461069e-09
3.6559685e-09
3.5643447e-09
3.6128552e-09
3.5930732e-09
3.6575882e-09
3.6860127e-09
3.7645655e-09
3.8354511e-09
3.9435706e-09
4.0657292e-09
4.2265708e-09
4.419429e-09
4.6597898e-09
4.9475709e-09
5.2874848e-09
5.6714724e-09
6.0848711e-09
6.5023848e-09
6.898276e-09
7.2513076e-09
7.5505784e-09
7.7944494e-09
7.9880329e-09
8.1394403e-09
8.2589922e-09
8.352221e-09
8.4264109e-09
8.4848976e-09
8.5353559e-09
8.5758761e-09
8.6092449e-09
8.6448336e-09
8.6860736e-09
8.7119285e-09
8.7248704e-09
8.728743e-09
8.6989625e-09
8.6607329e-09
8.6378464e-09
8.6260392e-09
8.6254234e-09
0.00091716194
0.0018268936
0.0019304953
0.0011553071
0.00014703665
1.1143355e-08
4.092419e-09
3.9362633e-09
3.6555601e-09
3.6642654e-09
3.5752777e-09
3.6253982e-09
3.6088641e-09
3.6761685e-09
3.7085144e-09
3.7908766e-09
3.8671769e-09
3.9814307e-09
4.1114877e-09
4.2815376e-09
4.485736e-09
4.7391429e-09
5.0416654e-09
5.3965246e-09
5.7934227e-09
6.2148201e-09
6.6334813e-09
7.0233901e-09
7.3647208e-09
7.6488589e-09
7.8764593e-09
8.0543736e-09
8.1918128e-09
8.2996155e-09
8.3831319e-09
8.449541e-09
8.5020743e-09
8.5481847e-09
8.5853823e-09
8.6169778e-09
8.6527405e-09
8.6914448e-09
8.7148198e-09
8.726171e-09
8.728946e-09
8.6941456e-09
8.6580648e-09
8.6366421e-09
8.6256477e-09
8.625402e-09
0.00091108043
0.001794029
0.0018661215
0.0010223011
8.5947884e-05
8.1658088e-09
4.0916843e-09
3.936545e-09
3.6658046e-09
3.6747071e-09
3.5917648e-09
3.6439343e-09
3.63031e-09
3.7003519e-09
3.736788e-09
3.8233383e-09
3.9053824e-09
4.0261174e-09
4.1645716e-09
4.3444273e-09
4.5606685e-09
4.8278943e-09
5.1458256e-09
5.5158629e-09
5.9251633e-09
6.3532142e-09
6.7711001e-09
7.1529489e-09
7.4807354e-09
7.7483599e-09
7.9588115e-09
8.1205921e-09
8.2438865e-09
8.3399214e-09
8.4137651e-09
8.4724551e-09
8.5190925e-09
8.5608915e-09
8.5948473e-09
8.6248699e-09
8.6608541e-09
8.696927e-09
8.717879e-09
8.7272912e-09
8.7288965e-09
8.6894853e-09
8.655518e-09
8.6354948e-09
8.6252609e-09
8.6253541e-09
0.00090521644
0.0017596308
0.0018006231
0.00089772189
4.166336e-05
6.7061135e-09
4.0911582e-09
3.9433396e-09
3.6798682e-09
3.6925047e-09
3.6122087e-09
3.6668609e-09
3.6568006e-09
3.7298421e-09
3.7707015e-09
3.8616349e-09
3.9498165e-09
4.0774907e-09
4.2249014e-09
4.4152391e-09
4.6443269e-09
4.9262139e-09
5.2602095e-09
5.6455307e-09
6.0664837e-09
6.4995749e-09
6.9145625e-09
7.2861657e-09
7.598572e-09
7.8483983e-09
8.0409621e-09
8.1862636e-09
8.2953291e-09
8.3796588e-09
8.443928e-09
8.4950121e-09
8.5358491e-09
8.5733952e-09
8.6042042e-09
8.6327846e-09
8.6688233e-09
8.7023825e-09
8.7212201e-09
8.728587e-09
8.7286187e-09
8.6850472e-09
8.6531221e-09
8.6344107e-09
8.624877e-09
8.6252732e-09
0.00089942185
0.0017230763
0.0017328759
0.00078193305
1.6709704e-05
5.9455987e-09
4.0936388e-09
3.9541112e-09
3.6978597e-09
3.7137026e-09
3.6371213e-09
3.6946635e-09
3.6881901e-09
3.7644591e-09
3.8099646e-09
3.9056455e-09
4.0003371e-09
4.1354088e-09
4.2923777e-09
4.4939392e-09
4.7367261e-09
5.0341434e-09
5.3847942e-09
5.7853255e-09
6.216921e-09
6.6532062e-09
7.0630065e-09
7.4221385e-09
7.7173968e-09
7.9483035e-09
8.1224154e-09
8.2510114e-09
8.3458443e-09
8.4186105e-09
8.4734568e-09
8.5170843e-09
8.5522541e-09
8.5856285e-09
8.6134006e-09
8.6406449e-09
8.6763893e-09
8.7074933e-09
8.7245265e-09
8.7305657e-09
8.7265512e-09
8.6808969e-09
8.650892e-09
8.633392e-09
8.6244938e-09
8.6251562e-09
0.00089352933
0.001684096
0.001661708
0.00067481326
5.8528506e-06
5.5375315e-09
4.100361e-09
3.969214e-09
3.7200239e-09
3.7395363e-09
3.6666681e-09
3.7269738e-09
3.724357e-09
3.8040072e-09
3.8544879e-09
3.9551664e-09
4.0568415e-09
4.1998527e-09
4.3670857e-09
4.5807076e-09
4.8381551e-09
5.1519983e-09
5.5198294e-09
5.9352586e-09
6.3761884e-09
6.8135146e-09
7.215627e-09
7.5599982e-09
7.8364256e-09
8.0474725e-09
8.2027238e-09
8.3144882e-09
8.3951573e-09
8.4565805e-09
8.5022114e-09
8.5385457e-09
8.5682157e-09
8.5975325e-09
8.6223944e-09
8.6483703e-09
8.6834615e-09
8.7121262e-09
8.7275441e-09
8.7329092e-09
8.7229374e-09
8.6770663e-09
8.6488114e-09
8.6324359e-09
8.6241089e-09
8.6249995e-09
0.00088727785
0.0016420099
0.0015850728
0.00057629654
1.9448613e-06
5.3163085e-09
4.1116444e-09
3.9887646e-09
3.7464815e-09
3.7694985e-09
3.7004551e-09
3.7637308e-09
3.7651206e-09
3.8483548e-09
3.9040967e-09
4.0101709e-09
4.1192897e-09
4.2708417e-09
4.4490871e-09
4.6756962e-09
4.9487739e-09
5.2799472e-09
5.6652853e-09
6.0950646e-09
6.543668e-09
6.9796191e-09
7.3714133e-09
7.6987748e-09
7.9549051e-09
8.1453741e-09
8.2814705e-09
8.376372e-09
8.4430394e-09
8.493412e-09
8.5300917e-09
8.5592845e-09
8.5836383e-09
8.6090644e-09
8.6311672e-09
8.6559636e-09
8.6901024e-09
8.7161851e-09
8.7300481e-09
8.7348e-09
8.718101e-09
8.6735817e-09
8.6468711e-09
8.6315385e-09
8.6237204e-09
8.6247995e-09
0.00088083038
0.0015968842
0.0014976766
0.00048521158
6.5023448e-07
5.1943066e-09
4.1276436e-09
4.0123824e-09
3.7772014e-09
3.8035776e-09
3.7383577e-09
3.80474e-09
3.8103392e-09
3.8973943e-09
3.9587495e-09
4.0705808e-09
4.1877357e-09
4.3485156e-09
4.5386623e-09
4.7792626e-09
5.0690601e-09
5.4183972e-09
5.8214421e-09
6.264651e-09
6.718915e-09
7.1507471e-09
7.5294423e-09
7.8376396e-09
8.0722703e-09
8.2415892e-09
8.3582311e-09
8.436326e-09
8.4892972e-09
8.5289633e-09
8.5570087e-09
8.5792102e-09
8.5984163e-09
8.6201875e-09
8.6397236e-09
8.6634797e-09
8.6964464e-09
8.7196803e-09
8.7319948e-09
8.7358357e-09
8.7126008e-09
8.6702021e-09
8.6450548e-09
8.6306984e-09
8.6233273e-09
8.6245518e-09
0.00087413255
0.0015497738
0.0014030991
0.00040201569
2.3363417e-07
5.1265354e-09
4.1477304e-09
4.0397218e-09
3.8116412e-09
3.8414567e-09
3.7802686e-09
3.8498491e-09
3.8599401e-09
3.951061e-09
4.0184232e-09
4.1364986e-09
4.2622956e-09
4.4330659e-09
4.6360521e-09
4.8917221e-09
5.1993014e-09
5.5675497e-09
5.9882027e-09
6.4435712e-09
6.9010968e-09
7.3258329e-09
7.6886557e-09
7.9758549e-09
8.1881006e-09
8.3357196e-09
8.4325365e-09
8.4939989e-09
8.5337855e-09
8.5631105e-09
8.5828546e-09
8.5982866e-09
8.6124676e-09
8.6308672e-09
8.6480822e-09
8.671079e-09
8.7026309e-09
8.7229502e-09
8.7334287e-09
8.736229e-09
8.706837e-09
8.6669768e-09
8.6433725e-09
8.6299181e-09
8.6229283e-09
8.6242519e-09
0.00086751734
0.001501239
0.0013015843
0.00033059105
9.5530253e-08
5.0914954e-09
4.1718566e-09
4.0708839e-09
3.8497142e-09
3.8830625e-09
3.8260361e-09
3.8990023e-09
3.9138953e-09
4.0093728e-09
4.0831877e-09
4.2080048e-09
4.3431796e-09
4.5248288e-09
4.7417078e-09
5.0136248e-09
5.3400861e-09
5.7278771e-09
6.1657454e-09
6.6315631e-09
7.0895214e-09
7.5039419e-09
7.8482412e-09
8.113011e-09
8.3021049e-09
8.4272638e-09
8.503908e-09
8.5490652e-09
8.5763671e-09
8.595722e-09
8.6074464e-09
8.6165265e-09
8.6257824e-09
8.6410618e-09
8.6562506e-09
8.6787775e-09
8.7086143e-09
8.7262746e-09
8.7346112e-09
8.7363291e-09
8.7011744e-09
8.6639567e-09
8.6418426e-09
8.6291991e-09
8.6225209e-09
8.6238953e-09
0.00086070203
0.0014508769
0.0011969711
0.00026408073
4.4603705e-08
5.0750938e-09
4.1996906e-09
4.1056006e-09
3.8911118e-09
3.9282375e-09
3.8756454e-09
3.9522222e-09
3.9722402e-09
4.0724045e-09
4.1531774e-09
4.2853024e-09
4.4306843e-09
4.6241604e-09
4.8560466e-09
5.1454013e-09
5.4917787e-09
5.8995154e-09
6.3538079e-09
6.8278936e-09
7.283085e-09
7.683924e-09
8.0074914e-09
8.2487888e-09
8.413703e-09
8.5153493e-09
8.5720201e-09
8.6014e-09
8.616884e-09
8.6266915e-09
8.6305674e-09
8.6339318e-09
8.6384838e-09
8.6507258e-09
8.6642151e-09
8.6864867e-09
8.7141604e-09
8.729709e-09
8.7361232e-09
8.7362821e-09
8.6959095e-09
8.661201e-09
8.6404798e-09
8.6285375e-09
8.6220997e-09
8.623478e-09
0.00085403875
0.0013978265
0.0010987375
0.00020114468
2.4137857e-08
5.070544e-09
4.2310425e-09
4.1435538e-09
3.9362563e-09
3.9771396e-09
3.9291508e-09
4.0095788e-09
4.0350926e-09
4.1403023e-09
4.2285957e-09
4.3687113e-09
4.5252011e-09
4.7315792e-09
4.9796859e-09
5.2877478e-09
5.655041e-09
6.0828928e-09
6.5523731e-09
7.0320186e-09
7.4808884e-09
7.8649748e-09
8.1661196e-09
8.3827493e-09
8.5215524e-09
8.5993677e-09
8.6365709e-09
8.6511767e-09
8.65509e-09
8.655972e-09
8.6521573e-09
8.6503342e-09
8.6507894e-09
8.6598341e-09
8.6719171e-09
8.6937813e-09
8.7192407e-09
8.7331127e-09
8.7384416e-09
8.7354302e-09
8.6913053e-09
8.6587689e-09
8.639288e-09
8.6279235e-09
8.6216601e-09
8.6229976e-09
0.00084788353
0.0013456647
0.00099876203
0.00014313247
1.5198631e-08
5.073745e-09
4.2657521e-09
4.1850611e-09
3.9848755e-09
4.0297258e-09
3.9866228e-09
4.0711637e-09
4.1025765e-09
4.2132734e-09
4.3097245e-09
4.4586544e-09
4.627191e-09
4.8475943e-09
5.1131609e-09
5.4411759e-09
5.8302107e-09
6.2779675e-09
6.7608609e-09
7.2428572e-09
7.681708e-09
8.0463389e-09
8.3237193e-09
8.5133448e-09
8.6247209e-09
8.6786982e-09
8.6976012e-09
8.69842e-09
8.691244e-09
8.683566e-09
8.6724088e-09
8.6652699e-09
8.662777e-09
8.668432e-09
8.6793102e-09
8.7005565e-09
8.7237347e-09
8.7363327e-09
8.7410057e-09
8.7332987e-09
8.6872838e-09
8.6566743e-09
8.638255e-09
8.627346e-09
8.6211971e-09
8.622453e-09
0.00084266017
0.0012966812
0.00090028827
9.2163026e-05
1.0915334e-08
5.0823716e-09
4.3038817e-09
4.2300335e-09
4.0371384e-09
4.0861974e-09
4.0482159e-09
4.1371132e-09
4.1749582e-09
4.2915965e-09
4.3969552e-09
4.5555702e-09
4.7372116e-09
4.9728704e-09
5.2572337e-09
5.6064948e-09
6.0179438e-09
6.4849988e-09
6.9789237e-09
7.459588e-09
7.8847116e-09
8.2277467e-09
8.4793603e-09
8.6391417e-09
8.7221656e-09
8.7533483e-09
8.7558828e-09
8.7429951e-09
8.7251602e-09
8.7093541e-09
8.6911961e-09
8.6790904e-09
8.6740873e-09
8.676656e-09
8.6863584e-09
8.7068891e-09
8.727711e-09
8.7391021e-09
8.7432933e-09
8.7301705e-09
8.6838475e-09
8.6549061e-09
8.6373585e-09
8.6267935e-09
8.6207118e-09
8.6218471e-09
0.00083788125
0.0012462446
0.0008039109
5.19757e-05
8.7124524e-09
5.095788e-09
4.3454163e-09
4.2787514e-09
4.0930784e-09
4.1467038e-09
4.1140682e-09
4.2076832e-09
4.2524895e-09
4.3756669e-09
4.4907591e-09
4.6599785e-09
4.8558449e-09
5.1080085e-09
5.4125535e-09
5.7842076e-09
6.2184744e-09
6.703587e-09
7.2055869e-09
7.6808937e-09
8.088969e-09
8.4086689e-09
8.6309907e-09
8.7587947e-09
8.8134833e-09
8.8246343e-09
8.8108359e-09
8.7846925e-09
8.7568894e-09
8.7333609e-09
8.7086087e-09
8.6918722e-09
8.6844025e-09
8.6846689e-09
8.6930592e-09
8.7129459e-09
8.7312934e-09
8.7410899e-09
8.7444825e-09
8.7262163e-09
8.6809697e-09
8.653408e-09
8.6365758e-09
8.626256e-09
8.6202201e-09
8.6211866e-09
0.00083414459
0.0011950629
0.00071121828
2.5453833e-05
7.5191285e-09
5.1144992e-09
4.3906382e-09
4.3311154e-09
4.1529629e-09
4.2112187e-09
4.1844576e-09
4.2831669e-09
4.3356084e-09
4.4659726e-09
4.5916104e-09
4.7724787e-09
4.9837592e-09
5.2538401e-09
5.5799847e-09
5.975214e-09
6.4322907e-09
6.9337e-09
7.4401189e-09
7.905933e-09
8.2941464e-09
8.5878772e-09
8.7768663e-09
8.8713082e-09
8.8998945e-09
8.8923143e-09
8.8622179e-09
8.8235312e-09
8.7864053e-09
8.7555911e-09
8.7246854e-09
8.7037592e-09
8.6936533e-09
8.6924351e-09
8.699415e-09
8.7187857e-09
8.7344608e-09
8.7424599e-09
8.7449468e-09
8.7216761e-09
8.6784508e-09
8.6521048e-09
8.6358972e-09
8.6257411e-09
8.6196992e-09
8.6204816e-09
0.00083111115
0.0011425125
0.00062342907
1.114196e-05
6.8494654e-09
5.1406247e-09
4.4395362e-09
4.3873525e-09
4.2169271e-09
4.280091e-09
4.2597554e-09
4.3640271e-09
4.4247822e-09
4.5629914e-09
4.7001135e-09
4.8937007e-09
5.1216548e-09
5.4110817e-09
5.7602599e-09
6.1799475e-09
6.6593268e-09
7.1744726e-09
7.6812072e-09
8.1335635e-09
8.4996386e-09
8.7628811e-09
8.9153049e-09
8.9766448e-09
8.9827265e-09
8.9555198e-09
8.9100048e-09
8.8595218e-09
8.8137509e-09
8.7760777e-09
8.7394175e-09
8.7145909e-09
8.7021362e-09
8.6998667e-09
8.7054321e-09
8.7243599e-09
8.7374107e-09
8.7436533e-09
8.7450918e-09
8.7170163e-09
8.676042e-09
8.6509288e-09
8.6353217e-09
8.6252835e-09
8.6191743e-09
8.6197301e-09
0.00082903902
0.0010895164
0.00054135758
4.5825444e-06
6.4659235e-09
5.1722033e-09
4.4923217e-09
4.447801e-09
4.2854029e-09
4.3538816e-09
4.340444e-09
4.4507118e-09
4.520514e-09
4.667214e-09
4.8168438e-09
5.0243293e-09
5.2703582e-09
5.5807029e-09
5.9543952e-09
6.3992343e-09
6.8998126e-09
7.4254319e-09
7.9279963e-09
8.3632747e-09
8.7043358e-09
8.9314678e-09
9.0452173e-09
9.0768542e-09
9.0606771e-09
9.0143881e-09
8.9542066e-09
8.8927155e-09
8.83896e-09
8.7948444e-09
8.7527818e-09
8.7244208e-09
8.7099562e-09
8.7069175e-09
8.7111416e-09
8.7294926e-09
8.7403442e-09
8.7449685e-09
8.7450623e-09
8.7123026e-09
8.673619e-09
8.6497901e-09
8.6348191e-09
8.6249224e-09
8.6187025e-09
8.618931e-09
0.00082768562
0.0010389889
0.00046542841
1.8658662e-06
6.2449836e-09
5.2081212e-09
4.549528e-09
4.5129818e-09
4.3588846e-09
4.433123e-09
4.426938e-09
4.543659e-09
4.6232013e-09
4.7792711e-09
4.9424635e-09
5.1651351e-09
5.4306821e-09
5.7635747e-09
6.1631045e-09
6.6332935e-09
7.1531728e-09
7.68528e-09
8.1791668e-09
8.5942664e-09
8.9052836e-09
9.091705e-09
9.1669636e-09
9.1724301e-09
9.1333012e-09
9.0688175e-09
8.994882e-09
8.9231801e-09
8.8620921e-09
8.8119212e-09
8.764777e-09
8.7333047e-09
8.7172034e-09
8.713572e-09
8.7166282e-09
8.7339226e-09
8.7431935e-09
8.7469499e-09
8.7443595e-09
8.7075359e-09
8.6711045e-09
8.6485851e-09
8.634311e-09
8.6246557e-09
8.6183779e-09
8.618086e-09
0.00082622395
0.00097978411
0.00039554553
7.8437108e-07
6.1212799e-09
5.2492469e-09
4.6117829e-09
4.5833207e-09
4.4377685e-09
4.5180055e-09
4.519606e-09
4.6432329e-09
4.7334674e-09
4.8997339e-09
5.0777031e-09
5.3169513e-09
5.6036512e-09
5.9608448e-09
6.387457e-09
6.8827044e-09
7.4191994e-09
7.9532615e-09
8.4340585e-09
8.8259271e-09
9.0995894e-09
9.2421686e-09
9.2826929e-09
9.2622021e-09
9.2005929e-09
9.1189053e-09
9.0321146e-09
8.9509989e-09
8.8832081e-09
8.8273365e-09
8.7754345e-09
8.7413146e-09
8.7239173e-09
8.719825e-09
8.7219358e-09
8.7376133e-09
8.7456904e-09
8.7491197e-09
8.7425805e-09
8.7027486e-09
8.6684935e-09
8.6472597e-09
8.6337274e-09
8.6245011e-09
8.6181742e-09
8.6172005e-09
0.00082505463
0.00091981582
0.0003325171
3.5217516e-07
6.0579158e-09
5.2956119e-09
4.6792078e-09
4.6589044e-09
4.5222031e-09
4.6086669e-09
4.6188614e-09
4.7499833e-09
4.8518919e-09
5.0293754e-09
5.223373e-09
5.4807112e-09
5.7902752e-09
6.1734758e-09
6.6280169e-09
7.1471974e-09
7.6967199e-09
8.2278829e-09
8.691581e-09
9.0549697e-09
9.2850424e-09
9.382983e-09
9.3929852e-09
9.3455518e-09
9.2625419e-09
9.1647221e-09
9.0660099e-09
8.9762716e-09
8.9023867e-09
8.8411354e-09
8.7848183e-09
8.7485143e-09
8.730117e-09
8.7256626e-09
8.7269819e-09
8.7408245e-09
8.7475936e-09
8.7504659e-09
8.7399258e-09
8.6980218e-09
8.6658663e-09
8.6459037e-09
8.6331272e-09
8.6243885e-09
8.6179568e-09
8.6162885e-09
0.00082384151
0.00085504877
0.00027581541
1.7317203e-07
6.032926e-09
5.3471621e-09
4.751486e-09
4.7398816e-09
4.6123962e-09
4.7057408e-09
4.7252281e-09
4.8646176e-09
4.9791752e-09
5.1688993e-09
5.3803428e-09
5.6574811e-09
5.9918462e-09
6.4027613e-09
6.885745e-09
7.4269042e-09
7.9851368e-09
8.50835e-09
8.9512515e-09
9.2782613e-09
9.4597465e-09
9.5163899e-09
9.4965766e-09
9.4225413e-09
9.3192577e-09
9.2064025e-09
9.0966934e-09
8.999109e-09
8.9197149e-09
8.8533778e-09
8.7930082e-09
8.7549693e-09
8.7358052e-09
8.7310418e-09
8.731817e-09
8.7436079e-09
8.7490736e-09
8.7511519e-09
8.7364582e-09
8.6934768e-09
8.6633299e-09
8.6445923e-09
8.6325362e-09
8.6242578e-09
8.6176696e-09
8.6153836e-09
0.00082212826
0.00078797412
0.00022544418
9.4751023e-08
6.0304571e-09
5.4038333e-09
4.8295254e-09
4.8267297e-09
4.7092555e-09
4.809768e-09
4.8394572e-09
4.9876992e-09
5.115978e-09
5.3192143e-09
5.5496136e-09
5.84849e-09
6.2095268e-09
6.6497007e-09
7.1606924e-09
7.7209841e-09
8.2827985e-09
8.7932204e-09
9.2104235e-09
9.4924914e-09
9.6228741e-09
9.6437078e-09
9.5924946e-09
9.4931381e-09
9.3708536e-09
9.2440853e-09
9.1243056e-09
9.0196369e-09
8.9352926e-09
8.8641339e-09
8.8000904e-09
8.7607496e-09
8.7410024e-09
8.7359322e-09
8.7363842e-09
8.7460181e-09
8.7501234e-09
8.751393e-09
8.73231e-09
8.6892378e-09
8.6609653e-09
8.643361e-09
8.6319558e-09
8.6240834e-09
8.6173027e-09
8.6145027e-09
0.00082060315
0.0007173485
0.00018116022
5.7599506e-08
6.0451686e-09
5.4667201e-09
4.9137079e-09
4.9202821e-09
4.8132024e-09
4.9214979e-09
4.9620604e-09
5.1199042e-09
5.2630653e-09
5.4811099e-09
5.7323997e-09
6.0550789e-09
6.4449149e-09
6.9154922e-09
7.4534912e-09
8.0289634e-09
8.5890132e-09
9.0818221e-09
9.4655754e-09
9.6955382e-09
9.7766841e-09
9.7634595e-09
9.6808911e-09
9.5574979e-09
9.4175148e-09
9.2779465e-09
9.1490051e-09
9.0379871e-09
8.9492027e-09
8.8734365e-09
8.8061653e-09
8.7659183e-09
8.7457452e-09
8.7402964e-09
8.7405194e-09
8.7482808e-09
8.7511812e-09
8.7514705e-09
8.7275495e-09
8.6853847e-09
8.6588149e-09
8.6422196e-09
8.6313796e-09
8.623853e-09
8.6168622e-09
8.6136474e-09
0.00082055364
0.00066133302
0.00014341097
3.8550575e-08
6.072892e-09
5.5362315e-09
5.0046149e-09
5.020949e-09
4.92476e-09
5.0412788e-09
5.093635e-09
5.2619351e-09
5.4213291e-09
5.6560301e-09
5.9301049e-09
6.2787593e-09
6.6992929e-09
7.200739e-09
7.7635413e-09
8.3493269e-09
8.9019956e-09
9.3723624e-09
9.7119794e-09
9.8851979e-09
9.9235178e-09
9.8742901e-09
9.7616873e-09
9.6157583e-09
9.4594256e-09
9.3081701e-09
9.1709611e-09
9.05429e-09
8.9614967e-09
8.881251e-09
8.8113839e-09
8.7705033e-09
8.7500194e-09
8.7441311e-09
8.7440779e-09
8.7502754e-09
8.7525965e-09
8.7509926e-09
8.7224655e-09
8.6819148e-09
8.656877e-09
8.6411739e-09
8.630814e-09
8.6235578e-09
8.6163636e-09
8.6128066e-09
0.00082192221
0.00061709329
0.0001112759
2.7928431e-08
6.1113955e-09
5.6127779e-09
5.1026931e-09
5.1290572e-09
5.0442947e-09
5.1695756e-09
5.234882e-09
5.4147716e-09
5.5919825e-09
5.8453366e-09
6.1442564e-09
6.5213147e-09
6.97424e-09
7.5064171e-09
8.0907858e-09
8.6813448e-09
9.2208676e-09
9.6612585e-09
9.9472231e-09
1.0063454e-08
1.0061953e-08
9.9762437e-09
9.8350941e-09
9.6681664e-09
9.4968257e-09
9.3349699e-09
9.1903491e-09
9.0686525e-09
8.9721999e-09
8.8875663e-09
8.8159192e-09
8.7745002e-09
8.753784e-09
8.747546e-09
8.7471581e-09
8.7519317e-09
8.7538195e-09
8.7495072e-09
8.7172073e-09
8.6787576e-09
8.6551027e-09
8.6402204e-09
8.6302885e-09
8.6231929e-09
8.6158181e-09
8.6119817e-09
0.00082447086
0.00057872444
8.3380038e-05
2.148513e-08
6.1598262e-09
5.6967641e-09
5.2081254e-09
5.2449978e-09
5.1723308e-09
5.3071277e-09
5.3867746e-09
5.5796906e-09
5.776427e-09
6.0506065e-09
6.3766601e-09
6.784392e-09
7.270847e-09
7.8323786e-09
8.4338043e-09
9.0230515e-09
9.5436144e-09
9.9433705e-09
1.0168171e-08
1.0232418e-08
1.0190557e-08
1.0069204e-08
9.9012565e-09
9.7149526e-09
9.5299558e-09
9.3585618e-09
9.2073323e-09
9.0811647e-09
8.9813689e-09
8.8927082e-09
8.8197442e-09
8.7779106e-09
8.7570045e-09
8.7504682e-09
8.7499095e-09
8.7531907e-09
8.7543907e-09
8.7471226e-09
8.7119773e-09
8.6757799e-09
8.6534059e-09
8.6393152e-09
8.6298614e-09
8.6227578e-09
8.6152357e-09
8.6111767e-09
0.00082869255
0.00054721456
6.0316669e-05
1.7405041e-08
6.2169521e-09
5.7876011e-09
5.3210071e-09
5.368983e-09
5.309905e-09
5.4551672e-09
5.5507782e-09
5.758105e-09
5.9763118e-09
6.2735481e-09
6.6292612e-09
7.069917e-09
7.5905037e-09