/*--------------------------------*- C++ -*----------------------------------*\
  =========                 |
  \\      /  F ield         | OpenFOAM: The Open Source CFD Toolbox
   \\    /   O peration     | Website:  https://openfoam.org
    \\  /    A nd           | Version:  8
     \\/     M anipulation  |
\*---------------------------------------------------------------------------*/
FoamFile
{
    version     2.0;
    format      ascii;
    class       volVectorField;
    location    "0.0900078";
    object      cellDisplacement;
}
// * * * * * * * * * * * * * * * * * * * * * * * * * * * * * * * * * * * * * //

dimensions      [0 1 0 0 0 0 0];

internalField   nonuniform List<vector> 
20000
(
(0.0016423574 0 0.0012890242)
(0.0016423431 0 0.0012888238)
(0.0016423096 0 0.0012883283)
(0.0016422449 0 0.0012877601)
(0.0016421353 0 0.0012871102)
(0.001641962 0 0.0012863748)
(0.0016416988 0 0.001285555)
(0.0016413096 0 0.0012846586)
(0.0016407457 0 0.0012837064)
(0.0016399404 0 0.0012827367)
(0.0016388044 0 0.0012818178)
(0.0016372176 0 0.0012810595)
(0.0016350209 0 0.001280635)
(0.0016320044 0 0.0012808093)
(0.0016278942 0 0.0012819804)
(0.0016223375 0 0.0012847312)
(0.0016148856 0 0.0012899127)
(0.0016049748 0 0.0012987393)
(0.0015919219 0 0.0013129078)
(0.0015749095 0 0.0013347806)
(0.0015530109 0 0.001367522)
(0.001525212 0 0.0014152709)
(0.0014904785 0 0.00148319)
(0.0014478893 0 0.0015773639)
(0.0013967146 0 0.0017044154)
(0.0013367187 0 0.0018707245)
(0.0012679945 0 0.0020816369)
(0.0011915635 0 0.0023390531)
(0.0011085508 0 0.002642068)
(0.001021317 0 0.0029827954)
(0.00093132351 0 0.0033522821)
(0.00084201032 0 0.0037307067)
(0.00075459412 0 0.0041046545)
(0.00067188862 0 0.0044529893)
(0.00059380656 0 0.0047676702)
(0.00052308714 0 0.0050313287)
(0.00045800494 0 0.0052443186)
(0.00040097754 0 0.0053969179)
(0.00034930142 0 0.0054937996)
(0.00030501678 0 0.0055302125)
(0.00026519536 0 0.0055076325)
(0.00023105259 0 0.0054220274)
(0.00019801116 0 0.0052590281)
(0.00017053629 0 0.0050254842)
(0.00014398737 0 0.0046897321)
(0.00012151803 0 0.0042781178)
(9.9488592e-05 0 0.0037362479)
(7.5768911e-05 0 0.0030492711)
(4.9974607e-05 0 0.00213757)
(1.6859593e-05 0 0.00086129244)
(0.0016447133 0 0.001057184)
(0.0016447008 0 0.0010566242)
(0.0016446661 0 0.0010559769)
(0.0016445996 0 0.0010552211)
(0.0016444874 0 0.0010543471)
(0.0016443102 0 0.0010533438)
(0.0016440414 0 0.0010522047)
(0.0016436441 0 0.0010509278)
(0.0016430687 0 0.0010495235)
(0.0016422472 0 0.0010480177)
(0.0016410891 0 0.0010464654)
(0.0016394723 0 0.0010449619)
(0.0016372356 0 0.0010436656)
(0.0016341664 0 0.0010428264)
(0.0016299871 0 0.0010428264)
(0.0016243419 0 0.001044237)
(0.0016167757 0 0.0010479021)
(0.0016067231 0 0.0010550343)
(0.0015934937 0 0.001067368)
(0.0015762716 0 0.0010873035)
(0.0015541295 0 0.0011180984)
(0.001526061 0 0.0011640209)
(0.0014910498 0 0.0012303913)
(0.0014481968 0 0.0013235067)
(0.0013968217 0 0.0014502294)
(0.0013367111 0 0.0016172152)
(0.0012680454 0 0.0018299947)
(0.0011918111 0 0.0020908646)
(0.0011092077 0 0.0023989521)
(0.0010224659 0 0.0027468018)
(0.00093311754 0 0.0031251079)
(0.00084432907 0 0.003514804)
(0.00075740039 0 0.0039016653)
(0.00067494594 0 0.0042649424)
(0.00059707793 0 0.0045951371)
(0.00052626125 0 0.0048754689)
(0.00046113109 0 0.005104634)
(0.00040377546 0 0.0052733941)
(0.00035190033 0 0.0053851867)
(0.00030719871 0 0.0054357424)
(0.00026710214 0 0.0054260212)
(0.00023254358 0 0.0053521525)
(0.00019945391 0 0.005200867)
(0.0001716014 0 0.0049770745)
(0.00014495678 0 0.004652089)
(0.0001221447 0 0.0042472871)
(9.9880365e-05 0 0.0037124627)
(7.6044635e-05 0 0.0030300718)
(5.0035335e-05 0 0.0021210603)
(1.6867458e-05 0 0.00084647978)
(0.0016461186 0 0.00083031888)
(0.0016461042 0 0.00082961743)
(0.0016460667 0 0.00082879966)
(0.0016459965 0 0.00082784244)
(0.0016458794 0 0.0008267286)
(0.0016456955 0 0.00082543926)
(0.0016454178 0 0.00082396089)
(0.0016450087 0 0.00082228206)
(0.0016444176 0 0.00082040485)
(0.0016435751 0 0.0008183445)
(0.0016423893 0 0.00081614491)
(0.0016407355 0 0.0008138875)
(0.0016384509 0 0.00081171617)
(0.0016353181 0 0.00080986284)
(0.0016310581 0 0.0008086964)
(0.0016253079 0 0.00080876849)
(0.0016176097 0 0.00081092657)
(0.0016073918 0 0.00081638264)
(0.0015939609 0 0.00082689493)
(0.0015765002 0 0.00084491395)
(0.0015540843 0 0.00087380273)
(0.0015257146 0 0.00091797057)
(0.0014903947 0 0.00098288543)
(0.0014472517 0 0.0010750552)
(0.0013956587 0 0.0012015702)
(0.0013354299 0 0.0013693346)
(0.0012668352 0 0.001584035)
(0.0011908314 0 0.0018483153)
(0.001108691 0 0.0021613)
(0.0010225189 0 0.0025159257)
(0.00093390484 0 0.0029025645)
(0.00084574697 0 0.0033028756)
(0.00075941821 0 0.0037019102)
(0.00067732961 0 0.0040793244)
(0.00059977799 0 0.0044243064)
(0.00052897076 0 0.0047205973)
(0.00046386958 0 0.0049653935)
(0.00040626996 0 0.0051498305)
(0.00035424726 0 0.0052762192)
(0.00030918879 0 0.0053406559)
(0.00026885163 0 0.0053436415)
(0.00023391951 0 0.005281404)
(0.00020078125 0 0.0051416779)
(0.00017259265 0 0.0049276459)
(0.00014585398 0 0.0046132604)
(0.00012272784 0 0.0042154412)
(0.00010024096 0 0.0036876909)
(7.6292655e-05 0 0.003010095)
(5.0085244e-05 0 0.0021041252)
(1.6869827e-05 0 0.00083213592)
(0.0016465991 0 0.00060832085)
(0.0016465817 0 0.00060745827)
(0.0016465404 0 0.0006064487)
(0.0016464651 0 0.00060527189)
(0.001646341 0 0.00060390786)
(0.0016461481 0 0.00060233291)
(0.0016458583 0 0.00060052399)
(0.0016454337 0 0.00059846106)
(0.0016448219 0 0.00059613362)
(0.0016439531 0 0.00059354272)
(0.0016427325 0 0.00059071692)
(0.0016410345 0 0.00058772139)
(0.0016386918 0 0.00058468337)
(0.0016354854 0 0.00058182158)
(0.0016311301 0 0.00057948422)
(0.0016252596 0 0.00057822973)
(0.0016174097 0 0.00057886982)
(0.0016070044 0 0.00058265071)
(0.0015933468 0 0.0005913439)
(0.0015756197 0 0.00060746513)
(0.0015529009 0 0.00063450587)
(0.0015242006 0 0.00067702373)
(0.001488542 0 0.00074059966)
(0.0014450872 0 0.00083197048)
(0.0013932588 0 0.0009584197)
(0.0013329156 0 0.0011270783)
(0.0012644027 0 0.0013437872)
(0.0011886701 0 0.0016114453)
(0.0011070431 0 0.0019291855)
(0.0010215211 0 0.0022902547)
(0.00093371652 0 0.0026848059)
(0.00084629437 0 0.003095093)
(0.00076066577 0 0.0035056071)
(0.00067905644 0 0.003896362)
(0.00060191202 0 0.0042554272)
(0.00053122026 0 0.0045669534)
(0.00046621858 0 0.0048268272)
(0.0004084598 0 0.005026434)
(0.00035633795 0 0.005167077)
(0.00031098421 0 0.0052451121)
(0.00027044014 0 0.00526062)
(0.00023517887 0 0.005209894)
(0.00020199168 0 0.0050815528)
(0.00017350781 0 0.0048772775)
(0.00014667745 0 0.0045733122)
(0.00012326552 0 0.0041826332)
(0.00010057026 0 0.0036619714)
(7.6513115e-05 0 0.0029893411)
(5.0124254e-05 0 0.0020867898)
(1.6868586e-05 0 0.00081819745)
(0.0016461832 0 0.00039113221)
(0.0016461609 0 0.000390174)
(0.0016461134 0 0.00038904641)
(0.0016460303 0 0.00038771315)
(0.0016458966 0 0.00038613668)
(0.0016456917 0 0.00038429175)
(0.0016453867 0 0.00038214383)
(0.0016449428 0 0.00037967265)
(0.0016443063 0 0.0003768549)
(0.0016434059 0 0.00037369084)
(0.0016421445 0 0.00037019535)
(0.0016403942 0 0.00036642644)
(0.0016379843 0 0.00036249629)
(0.0016346921 0 0.00035860646)
(0.0016302278 0 0.00035509556)
(0.0016242198 0 0.00035248559)
(0.0016161983 0 0.00035161677)
(0.0016055824 0 0.00035370595)
(0.0015916723 0 0.00036058542)
(0.0015736505 0 0.0003748112)
(0.0015506004 0 0.00040005801)
(0.0015215402 0 0.0004410437)
(0.0014855132 0 0.00050339216)
(0.0014417243 0 0.00059410705)
(0.0013896465 0 0.0007206461)
(0.0013291914 0 0.00089033562)
(0.0012607752 0 0.0011091486)
(0.0011853515 0 0.0013801871)
(0.0011042891 0 0.0017025675)
(0.0010194919 0 0.0020697924)
(0.00093257527 0 0.0024718472)
(0.00084598682 0 0.0028915187)
(0.00076115346 0 0.0033128517)
(0.00068013006 0 0.0037161836)
(0.00060348234 0 0.004088635)
(0.00053300662 0 0.0044146824)
(0.00046817558 0 0.004689075)
(0.00041033923 0 0.004903334)
(0.0003581681 0 0.0050578746)
(0.0003125792 0 0.0051492047)
(0.0002718625 0 0.0051770356)
(0.00023631564 0 0.005137684)
(0.00020308439 0 0.0050205502)
(0.00017434318 0 0.0048260039)
(0.00014742658 0 0.0045322847)
(0.0001237564 0 0.0041488763)
(0.00010086598 0 0.0036353297)
(7.6705143e-05 0 0.002967838)
(5.015107e-05 0 0.0020690553)
(1.6862209e-05 0 0.00080465405)
(0.0016448967 0 0.00017857635)
(0.0016448691 0 0.00017743807)
(0.0016448148 0 0.0001761005)
(0.0016447229 0 0.00017453384)
(0.0016445778 0 0.00017270712)
(0.0016443584 0 0.00017058235)
(0.0016440348 0 0.00016812071)
(0.0016435672 0 0.00016528345)
(0.0016429007 0 0.00016203807)
(0.0016419622 0 0.0001583627)
(0.0016406526 0 0.00015425833)
(0.0016388409 0 0.00014976269)
(0.0016363534 0 0.00014497209)
(0.0016329628 0 0.0001400739)
(0.0016283744 0 0.0001353859)
(0.0016222108 0 0.00013143771)
(0.0016139965 0 0.00012902328)
(0.0016031462 0 0.00012940495)
(0.001588957 0 0.00013448454)
(0.0015706122 0 0.00014679441)
(0.0015472046 0 0.00017033898)
(0.0015177551 0 0.00020998277)
(0.0014813303 0 0.00027122097)
(0.0014371851 0 0.00036143559)
(0.001384846 0 0.00048827464)
(0.0013242844 0 0.00065916046)
(0.0012559821 0 0.00088020623)
(0.0011809085 0 0.0011546379)
(0.0011004624 0 0.0014815631)
(0.0010164645 0 0.0018546756)
(0.00093050674 0 0.0022638649)
(0.00084484624 0 0.0026923532)
(0.00076089694 0 0.0031238665)
(0.00068056179 0 0.0035390275)
(0.00060449381 0 0.0039241739)
(0.00053433122 0 0.0042640269)
(0.00046973898 0 0.0045523617)
(0.00041190486 0 0.0047807384)
(0.00035973378 0 0.0049487893)
(0.00031396934 0 0.0050530921)
(0.00027311531 0 0.0050930149)
(0.00023732676 0 0.0050648809)
(0.00020405753 0 0.0049587595)
(0.00017509577 0 0.0047738954)
(0.0001480996 0 0.0044902411)
(0.00012419791 0 0.0041142125)
(0.00010112755 0 0.0036077885)
(7.6868942e-05 0 0.0029455898)
(5.0165845e-05 0 0.0020509318)
(1.6852222e-05 0 0.00079145852)
(0.0016427622 0 -2.9357325e-05)
(0.0016427276 0 -3.0593547e-05)
(0.0016426645 0 -3.205239e-05)
(0.0016425616 0 -3.3778493e-05)
(0.0016424029 0 -3.5819833e-05)
(0.0016421662 0 -3.821538e-05)
(0.0016418211 0 -4.1014818e-05)
(0.0016413264 0 -4.4257233e-05)
(0.0016406256 0 -4.7987134e-05)
(0.0016396436 0 -5.2228627e-05)
(0.001638279 0 -5.6994264e-05)
(0.0016363978 0 -6.22557e-05)
(0.0016338222 0 -6.7933138e-05)
(0.0016303203 0 -7.3858921e-05)
(0.0016255922 0 -7.9728851e-05)
(0.0016192538 0 -8.5054006e-05)
(0.0016108241 0 -8.9022522e-05)
(0.0015997144 0 -9.0424201e-05)
(0.0015852199 0 -8.704768e-05)
(0.0015665316 0 -7.6207719e-05)
(0.0015427454 0 -5.4248238e-05)
(0.0015128677 0 -1.6253997e-05)
(0.001476012 0 4.3936652e-05)
(0.0014314923 0 0.00013385692)
(0.0013788818 0 0.00026118771)
(0.0013182201 0 0.00043344628)
(0.0012500517 0 0.00065686207)
(0.0011753678 0 0.00093472806)
(0.0010955907 0 0.0012661224)
(0.0010124627 0 0.0016448883)
(0.00092753691 0 0.0020608541)
(0.00084289209 0 0.0024976325)
(0.00075991092 0 0.0029387176)
(0.00068035924 0 0.0033649939)
(0.00060495223 0 0.0037621548)
(0.00053519412 0 0.0041151118)
(0.00047090866 0 0.0044168122)
(0.00041315295 0 0.0046587664)
(0.0003610321 0 0.0048399299)
(0.00031514991 0 0.0049568652)
(0.0002741942 0 0.0050086365)
(0.00023820681 0 0.0049915464)
(0.00020491004 0 0.0048962391)
(0.00017576228 0 0.0047209884)
(0.00014869583 0 0.0044472212)
(0.00012458878 0 0.0040786568)
(0.00010135285 0 0.0035793779)
(7.7003433e-05 0 0.0029226222)
(5.0167183e-05 0 0.0020324289)
(1.68372e-05 0 0.00077859886)
(0.0016398053 0 -0.00023284566)
(0.0016397625 0 -0.00023425544)
(0.0016396892 0 -0.00023591384)
(0.0016395736 0 -0.00023786248)
(0.0016393991 0 -0.00024014506)
(0.0016391426 0 -0.00024281407)
(0.0016387727 0 -0.00024592537)
(0.0016382467 0 -0.00024953491)
(0.0016375067 0 -0.00025369682)
(0.0016364753 0 -0.00025845501)
(0.0016350483 0 -0.00026383549)
(0.0016330884 0 -0.00026982877)
(0.0016304137 0 -0.0002763714)
(0.001626787 0 -0.00028331178)
(0.0016219021 0 -0.0002903709)
(0.0016153683 0 -0.00029706379)
(0.0016066973 0 -0.00030262533)
(0.0015953146 0 -0.00030547555)
(0.0015805114 0 -0.00030361259)
(0.0015614539 0 -0.00029410623)
(0.001537231 0 -0.0002735819)
(0.0015068916 0 -0.00023712544)
(0.0014695942 0 -0.00017793316)
(0.0014246698 0 -8.8635517e-05)
(0.0013717809 0 3.9425388e-05)
(0.0013110276 0 0.0002132534)
(0.0012430171 0 0.00043919764)
(0.0011687663 0 0.00072054402)
(0.0010897121 0 0.0010563423)
(0.0010075236 0 0.0014405459)
(0.000923697 0 0.001862959)
(0.00084015051 0 0.0023075267)
(0.00075821644 0 0.0027575911)
(0.00067953746 0 0.0031942904)
(0.00060486714 0 0.0036027907)
(0.00053559974 0 0.0039681566)
(0.00047168638 0 0.0042826322)
(0.00041408209 0 0.0045376138)
(0.00036206132 0 0.0047314656)
(0.00031611756 0 0.0048606784)
(0.00027509712 0 0.0049240263)
(0.00023895309 0 0.0049177867)
(0.00020564045 0 0.0048330798)
(0.00017633996 0 0.0046673534)
(0.00014921365 0 0.0044032912)
(0.00012492641 0 0.0040422511)
(0.00010154118 0 0.003550115)
(7.7108906e-05 0 0.0028989452)
(5.0155454e-05 0 0.0020135483)
(1.6818444e-05 0 0.00076603954)
(0.0016360515 0 -0.00043190413)
(0.0016359994 0 -0.00043341513)
(0.0016359146 0 -0.00043519915)
(0.0016357846 0 -0.00043731202)
(0.0016355919 0 -0.00043981372)
(0.0016353127 0 -0.0004427569)
(0.0016349144 0 -0.00044620762)
(0.0016343528 0 -0.00045022195)
(0.0016335682 0 -0.0004548659)
(0.0016324809 0 -0.0004601856)
(0.0016309838 0 -0.00046622121)
(0.0016289357 0 -0.00047297349)
(0.0016261502 0 -0.00048039683)
(0.0016223844 0 -0.00048836061)
(0.0016173251 0 -0.00049660583)
(0.0016105739 0 -0.00050470769)
(0.0016016594 0 -0.00051157856)
(0.0015899943 0 -0.00051569181)
(0.0015748426 0 -0.0005152248)
(0.0015553749 0 -0.00050729503)
(0.0015306874 0 -0.00048817042)
(0.0014998612 0 -0.00045277391)
(0.0014620814 0 -0.0003944016)
(0.0014167391 0 -0.00030562742)
(0.0013635669 0 -0.00017710182)
(0.0013027338 0 -1.5143954e-06)
(0.0012349072 0 0.000227123)
(0.0011611326 0 0.00051201496)
(0.0010828562 0 0.00085216825)
(0.0010016741 0 0.001241617)
(0.00091901508 0 0.0016701585)
(0.00083664404 0 0.002122048)
(0.00075583121 0 0.0025805272)
(0.0006781075 0 0.0030269898)
(0.00060424688 0 0.0034461691)
(0.00053555102 0 0.0038232646)
(0.00047207389 0 0.0041499301)
(0.00041469051 0 0.004417387)
(0.00036281965 0 0.0046234973)
(0.00031686869 0 0.0047646173)
(0.00027582034 0 0.0048392602)
(0.00023956086 0 0.0048436625)
(0.00020624747 0 0.0047693381)
(0.00017682592 0 0.0046130277)
(0.0001496523 0 0.0043584892)
(0.00012520963 0 0.004005012)
(0.00010169054 0 0.0035200338)
(7.7184132e-05 0 0.0028745823)
(5.012916e-05 0 0.0019943067)
(1.6794613e-05 0 0.00075376709)
(0.0016315236 0 -0.00062670096)
(0.0016314604 0 -0.00062838816)
(0.0016313617 0 -0.00063037834)
(0.0016312148 0 -0.0006327212)
(0.0016310013 0 -0.00063547117)
(0.0016306964 0 -0.00063869291)
(0.0016302662 0 -0.0006424566)
(0.001629665 0 -0.00064683669)
(0.0016288309 0 -0.0006519074)
(0.0016276817 0 -0.00065773687)
(0.0016261069 0 -0.00066437816)
(0.0016239613 0 -0.00067185263)
(0.0016210533 0 -0.00068012993)
(0.0016171338 0 -0.00068909309)
(0.0016118818 0 -0.00069849102)
(0.0016049077 0 -0.00070784972)
(0.0015957389 0 -0.00071592008)
(0.0015837551 0 -0.00072142432)
(0.0015682234 0 -0.00072238376)
(0.0015483131 0 -0.00071591483)
(0.0015231298 0 -0.00069810865)
(0.0014917829 0 -0.00066372133)
(0.0014534966 0 -0.00060596644)
(0.0014077273 0 -0.00051709483)
(0.0013542548 0 -0.00038836222)
(0.0012933698 0 -0.0002107963)
(0.0012257591 0 2.0716904e-05)
(0.0011525072 0 0.00030921552)
(0.0010750651 0 0.00065367867)
(0.00099495506 0 0.0010481934)
(0.00091352684 0 0.0014825657)
(0.00083240299 0 0.0019413335)
(0.00075278049 0 0.0024076768)
(0.00067608825 0 0.0028632658)
(0.00060310484 0 0.0032924716)
(0.00053505573 0 0.0036806282)
(0.00047207591 0 0.004018891)
(0.00041497919 0 0.0042982656)
(0.00036330737 0 0.0045161832)
(0.00031740149 0 0.0046688296)
(0.00027636297 0 0.0047544606)
(0.00024002818 0 0.0047692782)
(0.00020673002 0 0.0047051044)
(0.00017721787 0 0.0045580826)
(0.00015001027 0 0.0043128822)
(0.00012543602 0 0.0039669832)
(0.00010180021 0 0.0034891489)
(7.7229424e-05 0 0.002849547)
(5.0088788e-05 0 0.0019747012)
(1.676689e-05 0 0.00074175321)
(0.0016262427 0 -0.00081724685)
(0.0016261678 0 -0.00081903599)
(0.0016260547 0 -0.00082115238)
(0.0016258896 0 -0.00082365953)
(0.0016256534 0 -0.00082662729)
(0.0016253201 0 -0.00083012113)
(0.0016248544 0 -0.00083422143)
(0.001624209 0 -0.00083900284)
(0.0016233196 0 -0.00084455157)
(0.0016221014 0 -0.0008509392)
(0.0016204404 0 -0.00085823284)
(0.0016181871 0 -0.0008664658)
(0.0016151443 0 -0.00087562687)
(0.0016110568 0 -0.00088562314)
(0.0016055982 0 -0.00089621934)
(0.0015983908 0 -0.0009066194)
(0.001588942 0 -0.00091593735)
(0.0015766138 0 -0.000922798)
(0.0015606713 0 -0.00092515524)
(0.0015402848 0 -0.00092007862)
(0.001514572 0 -0.00090352181)
(0.0014826726 0 -0.00087007126)
(0.0014438568 0 -0.00081274844)
(0.0013976403 0 -0.00072358079)
(0.0013438884 0 -0.00059401072)
(0.0012829658 0 -0.00041468508)
(0.0012156033 0 -0.00018010041)
(0.0011429208 0 0.00011207437)
(0.0010663705 0 0.0004608109)
(0.00098739666 0 0.00086022822)
(0.00090726248 0 0.0013001422)
(0.00082745276 0 0.0017653725)
(0.00074908461 0 0.0022390548)
(0.00067349389 0 0.0027031639)
(0.0006014518 0 0.0031417611)
(0.00053411957 0 0.0035403273)
(0.00047169608 0 0.0038896052)
(0.0004149484 0 0.0041803409)
(0.00036352388 0 0.0044096143)
(0.00031771357 0 0.0045733932)
(0.00027672201 0 0.0046696992)
(0.0002403511 0 0.0046946925)
(0.00020708677 0 0.0046404326)
(0.00017751336 0 0.0045025558)
(0.00015028681 0 0.0042665067)
(0.00012560455 0 0.003928183)
(0.00010186832 0 0.0034574977)
(7.7243459e-05 0 0.0028238625)
(5.003277e-05 0 0.0019547537)
(1.6733982e-05 0 0.00072998486)
(0.0016202316 0 -0.0010037031)
(0.0016201426 0 -0.0010056615)
(0.0016200123 0 -0.0010079718)
(0.0016198262 0 -0.0010106955)
(0.0016195643 0 -0.0010138989)
(0.0016191996 0 -0.001017661)
(0.0016186951 0 -0.0010220681)
(0.0016180014 0 -0.0010272128)
(0.0016170519 0 -0.0010331907)
(0.0016157585 0 -0.001040094)
(0.0016140033 0 -0.001048003)
(0.0016116318 0 -0.0010569717)
(0.0016084408 0 -0.0010670076)
(0.0016041668 0 -0.0010780493)
(0.0015984994 0 -0.0010897095)
(0.0015910492 0 -0.0011011871)
(0.0015812902 0 -0.0011117277)
(0.001568588 0 -0.0011199045)
(0.0015522024 0 -0.0011236222)
(0.0015313055 0 -0.0011198727)
(0.0015050295 0 -0.001104481)
(0.0014725478 0 -0.0010718646)
(0.001433184 0 -0.0010147686)
(0.0013865157 0 -0.00092507057)
(0.0013325028 0 -0.00079400711)
(0.0012715422 0 -0.00061311666)
(0.0012044807 0 -0.00037525658)
(0.0011324177 0 -7.934612e-05)
(0.0010568181 0 0.00027362623)
(0.00097904291 0 0.0006777922)
(0.0009002611 0 0.001122974)
(0.00082182699 0 0.0015942724)
(0.00074477208 0 0.0020747799)
(0.00067034654 0 0.0025468244)
(0.00059931229 0 0.0029945644)
(0.00053275935 0 0.0034028789)
(0.00047094169 0 0.0037622397)
(0.00041460143 0 0.0040637749)
(0.00036347118 0 0.0043039367)
(0.00031780469 0 0.0044784478)
(0.0002768976 0 0.0045850931)
(0.00024052856 0 0.0046200076)
(0.00020731699 0 0.004575412)
(0.00017771059 0 0.0044465193)
(0.00015048051 0 0.0042194298)
(0.00012571302 0 0.0038886576)
(0.00010189412 0 0.0034250936)
(7.72265e-05 0 0.002797544)
(4.9961658e-05 0 0.0019344588)
(1.6696985e-05 0 0.00071843766)
(0.0016135124 0 -0.0011860843)
(0.0016134092 0 -0.0011881459)
(0.0016132613 0 -0.001190583)
(0.0016130532 0 -0.0011934705)
(0.0016127637 0 -0.0011968896)
(0.0016123644 0 -0.001200921)
(0.0016118167 0 -0.0012056611)
(0.0016110694 0 -0.0012112036)
(0.0016100531 0 -0.0012176561)
(0.0016086767 0 -0.0012251129)
(0.0016068178 0 -0.0012336705)
(0.0016043173 0 -0.0012433872)
(0.0016009641 0 -0.0012542894)
(0.0015964999 0 -0.0012663136)
(0.0015906147 0 -0.0012789234)
(0.0015828918 0 -0.0012915659)
(0.0015727982 0 -0.0013033424)
(0.001559693 0 -0.0013128202)
(0.0015428311 0 -0.0013178677)
(0.0015213884 0 -0.0013153976)
(0.0014945147 0 -0.0013011001)
(0.0014614223 0 -0.0012692328)
(0.0014214959 0 -0.0012121432)
(0.0013743724 0 -0.0011216881)
(0.0013201016 0 -0.00098886459)
(0.0012591557 0 -0.00080575573)
(0.0011924244 0 -0.00056482288)
(0.0011210301 0 -0.00026512176)
(0.0010464413 0 9.2054969e-05)
(0.00096992604 0 0.00050082526)
(0.0008925542 0 0.00095100668)
(0.0008155529 0 0.0014280003)
(0.0007398824 0 0.0019153308)
(0.00066668075 0 0.0023947565)
(0.00059670514 0 0.0028510144)
(0.00053098243 0 0.00326843)
(0.0004698209 0 0.0036372283)
(0.00041394375 0 0.0039489341)
(0.00036314981 0 0.0041992321)
(0.00031767355 0 0.0043840621)
(0.00027688745 0 0.0045007081)
(0.00024055736 0 0.0045452788)
(0.0002074194 0 0.0045100929)
(0.00017780747 0 0.0043900101)
(0.00015059063 0 0.0041716858)
(0.00012576052 0 0.003848426)
(0.00010187589 0 0.0033919766)
(7.7177193e-05 0 0.0027706152)
(4.9873841e-05 0 0.0019138419)
(1.6654636e-05 0 0.0007071)
(0.0016061039 0 -0.0013645358)
(0.0016059839 0 -0.0013667528)
(0.0016058154 0 -0.0013693721)
(0.0016055821 0 -0.0013724699)
(0.0016052619 0 -0.0013761263)
(0.0016048248 0 -0.0013804331)
(0.0016042307 0 -0.0013854897)
(0.0016034255 0 -0.0013914076)
(0.0016023377 0 -0.0013982979)
(0.0016008717 0 -0.0014062776)
(0.0015989018 0 -0.001415448)
(0.0015962617 0 -0.0014258948)
(0.0015927359 0 -0.001437655)
(0.0015880717 0 -0.0014505404)
(0.0015819507 0 -0.0014641418)
(0.001573934 0 -0.0014779046)
(0.0015634813 0 -0.001490886)
(0.0015499432 0 -0.0015016371)
(0.0015325708 0 -0.0015079801)
(0.0015105465 0 -0.0015067336)
(0.0014830421 0 -0.001493426)
(0.0014493412 0 -0.0014617033)
(0.0014088459 0 -0.0014043516)
(0.001361267 0 -0.001312931)
(0.001306731 0 -0.00117855)
(0.0012458476 0 -0.00099254797)
(0.0011794683 0 -0.00074871671)
(0.001108805 0 -0.00044520643)
(0.0010352887 0 -8.3860505e-05)
(0.00096009289 0 0.00032937454)
(0.00088420751 0 0.00078475688)
(0.00080869969 0 0.0012672166)
(0.00073445979 0 0.0017609433)
(0.00066252284 0 0.0022472046)
(0.00059364024 0 0.0027109778)
(0.00052879929 0 0.0031368344)
(0.00046834579 0 0.003514746)
(0.00041297975 0 0.003836006)
(0.00036256172 0 0.0040956373)
(0.000317321 0 0.0042903392)
(0.00027669266 0 0.0044166541)
(0.00024043734 0 0.0044706046)
(0.00020739368 0 0.0044445621)
(0.00017780274 0 0.0043331)
(0.00015061595 0 0.0041233414)
(0.00012574509 0 0.0038075368)
(0.00010181291 0 0.0033581602)
(7.7095742e-05 0 0.0027430923)
(4.9769899e-05 0 0.0018928968)
(1.6608e-05 0 0.00069595075)
(0.0015980303 0 -0.0015391032)
(0.0015978923 0 -0.0015414597)
(0.0015977017 0 -0.0015442453)
(0.0015974411 0 -0.0015475411)
(0.0015970874 0 -0.001551432)
(0.0015966089 0 -0.0015560164)
(0.0015959637 0 -0.0015614003)
(0.0015950952 0 -0.0015677019)
(0.0015939291 0 -0.0015750431)
(0.0015923658 0 -0.0015835504)
(0.0015902745 0 -0.0015933393)
(0.0015874829 0 -0.0016045065)
(0.0015837758 0 -0.0016171171)
(0.0015789039 0 -0.0016308586)
(0.0015725257 0 -0.001645443)
(0.0015641932 0 -0.0016602837)
(0.0015533545 0 -0.001674443)
(0.0015393519 0 -0.0016864335)
(0.0015214325 0 -0.0016940492)
(0.0014987914 0 -0.0016939731)
(0.0014706673 0 -0.001681122)
(0.0014363448 0 -0.0016493083)
(0.0013952535 0 -0.0015914447)
(0.0013472097 0 -0.0014988069)
(0.0012924315 0 -0.0013626784)
(0.0012316245 0 -0.0011739978)
(0.0011656436 0 -0.00092704992)
(0.0010957766 0 -0.00061968114)
(0.0010233957 0 -0.00025419783)
(0.00094961509 0 0.00016384912)
(0.00087527907 0 0.00062441001)
(0.00080130386 0 0.0011120831)
(0.00072851173 0 0.0016112951)
(0.00065787883 0 0.0021037736)
(0.00059013078 0 0.0025744469)
(0.00052621882 0 0.0030081068)
(0.00046651804 0 0.0033945304)
(0.00041170952 0 0.0037247954)
(0.00036171175 0 0.0039934835)
(0.00031674719 0 0.0041973658)
(0.00027631174 0 0.0043329901)
(0.00024016602 0 0.0043960363)
(0.0002072387 0 0.0043788665)
(0.00017769465 0 0.0042758249)
(0.00015055578 0 0.0040744293)
(0.00012566594 0 0.0037660098)
(0.00010170356 0 0.0033236862)
(7.6980794e-05 0 0.0027150006)
(4.9648209e-05 0 0.0018716517)
(1.6555798e-05 0 0.00068497962)
(0.0015893086 0 -0.0017098746)
(0.0015891511 0 -0.0017123683)
(0.0015889365 0 -0.0017153173)
(0.0015886464 0 -0.0017188074)
(0.0015882565 0 -0.0017229292)
(0.0015877333 0 -0.0017277871)
(0.0015870329 0 -0.0017334946)
(0.0015860963 0 -0.0017401789)
(0.0015848457 0 -0.0017479704)
(0.0015831775 0 -0.0017570056)
(0.001580956 0 -0.0017674093)
(0.0015780027 0 -0.0017792852)
(0.0015741045 0 -0.0017926902)
(0.0015690092 0 -0.0018073206)
(0.0015623557 0 -0.0018228729)
(0.0015536839 0 -0.0018387872)
(0.0015424318 0 -0.00185409)
(0.0015279313 0 -0.0018672847)
(0.0015094275 0 -0.0018761543)
(0.0014861792 0 -0.0018767755)
(0.001457417 0 -0.0018641581)
(0.0014224155 0 -0.0018324133)
(0.001380716 0 -0.0017738631)
(0.0013322166 0 -0.0016797426)
(0.0012772408 0 -0.0015412172)
(0.0012165183 0 -0.001350003)
(0.0011509967 0 -0.0010998042)
(0.001081996 0 -0.00078851658)
(0.0010108602 0 -0.00041842636)
(0.00093857117 0 4.6001823e-06)
(0.00086580095 0 0.00046983363)
(0.00079338347 0 0.00096222795)
(0.00072206854 0 0.0014664035)
(0.00065277386 0 0.0019645119)
(0.00058619664 0 0.0024414908)
(0.00052325581 0 0.0028823401)
(0.00046434848 0 0.0032766856)
(0.00041014147 0 0.003615411)
(0.0003606055 0 0.0038929022)
(0.00031595303 0 0.0041052433)
(0.00027574678 0 0.0042498188)
(0.00023974412 0 0.0043216682)
(0.00020695459 0 0.0043130899)
(0.00017748241 0 0.0042182561)
(0.00015040907 0 0.0040250157)
(0.00012552138 0 0.0037238959)
(0.00010154716 0 0.003288569)
(7.6832453e-05 0 0.0026863561)
(4.950932e-05 0 0.0018500997)
(1.6499078e-05 0 0.00067416748)
(0.0015799568 0 -0.0018769283)
(0.0015797782 0 -0.0018795604)
(0.0015795376 0 -0.0018826737)
(0.0015792158 0 -0.001886359)
(0.0015787867 0 -0.001890712)
(0.0015782153 0 -0.0018958443)
(0.0015774555 0 -0.0019018765)
(0.0015764453 0 -0.0019089442)
(0.0015751036 0 -0.0019171888)
(0.0015733223 0 -0.0019267593)
(0.0015709599 0 -0.001937798)
(0.0015678316 0 -0.0019504339)
(0.0015637347 0 -0.0019645634)
(0.0015584032 0 -0.0019800338)
(0.0015514552 0 -0.0019965374)
(0.0015424212 0 -0.0020134803)
(0.0015307268 0 -0.0020298948)
(0.0015156947 0 -0.0020442241)
(0.0014966044 0 -0.0020540529)
(0.001472732 0 -0.002055159)
(0.0014432662 0 -0.0020429672)
(0.0014075628 0 -0.0020111449)
(0.0013652497 0 -0.0019516964)
(0.0013163076 0 -0.0018558256)
(0.0012611603 0 -0.0017146309)
(0.0012005969 0 -0.0015202183)
(0.0011355982 0 -0.0012666364)
(0.0010675518 0 -0.00095131661)
(0.00099775943 0 -0.00057624158)
(0.00092698246 0 -0.00014863494)
(0.00085580043 0 0.00032087626)
(0.00078496344 0 0.00081752923)
(0.00071515145 0 0.0013261759)
(0.00064722513 0 0.0018293608)
(0.00058185165 0 0.0023120783)
(0.00051992019 0 0.0027595295)
(0.00046184437 0 0.0031612304)
(0.00040827986 0 0.0035078832)
(0.00035924196 0 0.0037936926)
(0.00031494263 0 0.0040142658)
(0.00027499693 0 0.0041671923)
(0.00023916978 0 0.0042475472)
(0.00020654041 0 0.0042472754)
(0.00017716458 0 0.004160428)
(0.00015017523 0 0.0039751314)
(0.00012531068 0 0.0036812149)
(0.00010134222 0 0.0032528519)
(7.6649408e-05 0 0.0026571863)
(4.9351633e-05 0 0.0018282713)
(1.6436549e-05 0 0.00066350646)
(0.0015699934 0 -0.0020403401)
(0.001569792 0 -0.0020431098)
(0.0015695235 0 -0.0020463864)
(0.0015691675 0 -0.0020502657)
(0.0015686963 0 -0.002054849)
(0.001568073 0 -0.0020602541)
(0.0015672493 0 -0.0020666091)
(0.00156616 0 -0.0020740588)
(0.0015647202 0 -0.0020827537)
(0.0015628167 0 -0.0020928539)
(0.001560302 0 -0.0021045122)
(0.0015569944 0 -0.0021178796)
(0.0015526937 0 -0.0021327446)
(0.0015471053 0 -0.00214905)
(0.0015398413 0 -0.0021664766)
(0.0015304186 0 -0.0021844445)
(0.0015182525 0 -0.0022019424)
(0.001502662 0 -0.0022174255)
(0.0014829799 0 -0.0022277851)
(0.001458429 0 -0.0022294911)
(0.0014282274 0 -0.0022175978)
(0.0013918042 0 -0.0021855366)
(0.0013488804 0 -0.0021249299)
(0.0012995159 0 -0.0020270278)
(0.0012442405 0 -0.0018828889)
(0.0011839188 0 -0.0016846119)
(0.0011194998 0 -0.0014275504)
(0.0010525418 0 -0.0011075653)
(0.00098413466 0 -0.00072778936)
(0.00091489069 0 -0.00029593681)
(0.00084531601 0 0.00017748075)
(0.00077607854 0 0.00067795693)
(0.00070779113 0 0.0011906035)
(0.00064125851 0 0.0016983418)
(0.00057711666 0 0.0021862533)
(0.00051622811 0 0.0026397431)
(0.00045901791 0 0.0030482468)
(0.0004061332 0 0.0034023059)
(0.00035762825 0 0.003695948)
(0.00031372042 0 0.0039245472)
(0.00027406403 0 0.0040852054)
(0.00023844453 0 0.0041737622)
(0.00020599672 0 0.0041815027)
(0.00017674083 0 0.0041024103)
(0.00014985342 0 0.0039248416)
(0.00012503241 0 0.0036380195)
(0.0001010881 0 0.0032165502)
(7.643171e-05 0 0.0026275077)
(4.9175676e-05 0 0.0018061594)
(1.6369253e-05 0 0.00065297881)
(0.0015594355 0 -0.0022001849)
(0.0015592096 0 -0.0022030929)
(0.0015589112 0 -0.0022065339)
(0.0015585184 0 -0.0022106078)
(0.0015580021 0 -0.0022154216)
(0.0015573235 0 -0.0022210995)
(0.0015564313 0 -0.0022277767)
(0.0015552576 0 -0.0022356059)
(0.0015537132 0 -0.0022447473)
(0.00155168 0 -0.0022553712)
(0.0015490045 0 -0.0022676419)
(0.0015455114 0 -0.0022816418)
(0.0015409897 0 -0.0022972719)
(0.0015351274 0 -0.002314419)
(0.001527525 0 -0.0023327767)
(0.0015176883 0 -0.0023517307)
(0.0015050179 0 -0.002370265)
(0.0014888624 0 -0.0023866797)
(0.0014685564 0 -0.0023976649)
(0.0014432807 0 -0.002399844)
(0.0014123097 0 -0.002388126)
(0.0013751876 0 -0.0023552336)
(0.0013316671 0 -0.0022931612)
(0.0012819054 0 -0.0021929636)
(0.0012265504 0 -0.0020456508)
(0.0011664882 0 -0.0018436321)
(0.0011027712 0 -0.0015824758)
(0.0010370097 0 -0.0012575022)
(0.00097001206 0 -0.0008732748)
(0.00090232223 0 -0.00043748902)
(0.00083437388 0 3.9484094e-05)
(0.00076675282 0 0.0005433737)
(0.00070000838 0 0.0010595777)
(0.00063489125 0 0.0015713774)
(0.00057200577 0 0.0020639659)
(0.00051219017 0 0.0025229568)
(0.00045587703 0 0.0029377353)
(0.00040370665 0 0.0032986947)
(0.00035576753 0 0.0035996978)
(0.00031228432 0 0.0038359025)
(0.00027295098 0 0.0040040996)
(0.00023756713 0 0.0041003555)
(0.00020532284 0 0.0041158106)
(0.00017621001 0 0.0040442354)
(0.00014944314 0 0.0038741756)
(0.00012468594 0 0.0035943298)
(0.00010078346 0 0.0031797089)
(7.6178067e-05 0 0.0025973495)