/*--------------------------------*- C++ -*----------------------------------*\
  =========                 |
  \\      /  F ield         | OpenFOAM: The Open Source CFD Toolbox
   \\    /   O peration     | Website:  https://openfoam.org
    \\  /    A nd           | Version:  8
     \\/     M anipulation  |
\*---------------------------------------------------------------------------*/
FoamFile
{
    version     2.0;
    format      ascii;
    class       volScalarField;
    location    "0.0900078";
    object      Ma;
}
// * * * * * * * * * * * * * * * * * * * * * * * * * * * * * * * * * * * * * //

dimensions      [0 0 0 0 0 0 0];

internalField   nonuniform List<scalar> 
20000
(
0.59910029
0.71146865
0.78849141
0.85801182
0.92513993
0.98774335
0.99561411
1.003395
0.99653397
0.99971851
0.99542742
0.99619724
0.99283819
0.99187472
0.98864994
0.98623389
0.98244194
0.97852525
0.97355307
0.96784853
0.96106707
0.95314897
0.94397525
0.93333011
0.92112863
0.90717874
0.89134292
0.87389517
0.85594502
0.83845022
0.82206092
0.80735334
0.79463463
0.78401566
0.77542434
0.76870886
0.76353855
0.75964886
0.75675684
0.75465364
0.75320336
0.75215108
0.75130747
0.75055048
0.7501103
0.74999394
0.75021086
0.75154997
0.75303256
0.75330042
0.60972506
0.72313631
0.80087372
0.87080559
0.93818389
0.99841879
1.0024788
1.0101873
1.0032744
1.0064589
1.0021037
1.0028562
0.99943549
0.99841252
0.99511781
0.99259482
0.9886935
0.98460472
0.97944329
0.97348429
0.96642074
0.95816667
0.94858049
0.93738974
0.92443998
0.90941216
0.8922159
0.87423867
0.85603131
0.8382914
0.82174757
0.80697684
0.7942854
0.78373474
0.77522272
0.76857635
0.76345826
0.75959823
0.75671411
0.75461648
0.75316502
0.75210178
0.75120373
0.75037307
0.74997234
0.74997391
0.75021054
0.7518329
0.75296566
0.75331455
0.61966257
0.73430791
0.81282508
0.88319395
0.95089226
1.0083647
1.0090728
1.0168169
1.009819
1.0130318
1.0086022
1.0093334
1.0058517
1.004754
1.0013863
0.99873403
0.99470992
0.99042494
0.98506375
0.9788398
0.9714847
0.962852
0.95275795
0.94085179
0.92692246
0.9107345
0.89280649
0.87430469
0.85569995
0.83765197
0.82098376
0.80622309
0.79362309
0.78319886
0.7748165
0.7682827
0.76325276
0.75945298
0.75660395
0.75453366
0.75309916
0.75203454
0.75107023
0.75024393
0.74988371
0.74992482
0.75027634
0.75194462
0.75295346
0.75330439
0.6295057
0.74539995
0.8246316
0.89534102
0.96322885
1.0175958
1.0153491
1.0231336
1.0160543
1.0192799
1.0147778
1.0154784
1.0119321
1.0107492
1.007299
1.0045029
1.0003434
0.99585389
0.99029023
0.98379885
0.97613035
0.96704279
0.95629683
0.9434837
0.92842503
0.91130571
0.8929198
0.87396542
0.8549046
0.83663168
0.81991089
0.80522526
0.79277497
0.78252524
0.77430985
0.76791844
0.7629987
0.75927455
0.75647126
0.75443569
0.75302265
0.75195588
0.75092886
0.75011698
0.74979034
0.74986443
0.75038923
0.75203738
0.75293151
0.75330011
0.63912587
0.756199
0.83609784
0.90708711
0.97498683
1.0259098
1.0211989
1.0290393
1.021878
1.0251126
1.0205348
1.0211945
1.0175787
1.0162953
1.0127524
1.0097968
1.0054934
1.0007903
0.99501251
0.98822382
0.98016977
0.97048463
0.95889626
0.94504626
0.92907781
0.91146364
0.89260896
0.87305706
0.85362208
0.83518699
0.81848876
0.80395041
0.79171093
0.78168606
0.77367768
0.76746101
0.76267645
0.75904702
0.75630466
0.7543153
0.75293038
0.75186114
0.75078528
0.7500059
0.74970756
0.74980182
0.75052921
0.752092
0.75291988
0.75329408
0.64842738
0.76656976
0.84712023
0.9183784
0.98604584
1.0332888
1.0265521
1.0344444
1.0271953
1.0304291
1.0257724
1.0263786
1.0226872
1.0212886
1.0176467
1.0145237
1.0100749
1.0051483
0.99911932
0.99195746
0.98338397
0.97292062
0.96040771
0.94573248
0.92927331
0.91114509
0.89165685
0.87159106
0.85185184
0.83334279
0.81674782
0.80242708
0.79045709
0.78070396
0.77293897
0.76692584
0.76229836
0.7587798
0.75611088
0.75417698
0.75282322
0.75174698
0.75063963
0.74990274
0.74963289
0.74974575
0.75067607
0.75214574
0.75291593
0.75328825
0.65730956
0.77645367
0.85761061
0.92913218
0.99623515
1.0397011
1.0313396
1.0392741
1.0319348
1.0351595
1.0304199
1.0309591
1.0271873
1.0256627
1.0219205
1.018625
1.0140209
1.0088399
1.0024826
0.99481988
0.98555145
0.97427645
0.96106727
0.94594009
0.9289742
0.91016309
0.89007099
0.86955272
0.84960218
0.83110658
0.81469699
0.80066434
0.78902096
0.77958434
0.77209727
0.76631485
0.76186519
0.75847308
0.75589032
0.75402127
0.75270026
0.75160926
0.7504911
0.74980883
0.7495727
0.74970476
0.7508187
0.75219555
0.75291815
0.75328192
0.6656561
0.78572813
0.86750239
0.9393466
1.0054685
1.0451627
1.035521
1.0434885
1.0360548
1.0392592
1.0344316
1.0348903
1.0310378
1.0293805
1.0255356
1.0220506
1.0172518
1.0117457
1.0049522
0.9966542
0.98669652
0.97485707
0.96125982
0.94564904
0.92799437
0.90849552
0.88783889
0.86696016
0.84689143
0.82850215
0.81235984
0.79868313
0.78742013
0.77834125
0.77116342
0.76563608
0.76138275
0.75813098
0.75564614
0.7538504
0.75256204
0.75144486
0.7503388
0.74972111
0.74952634
0.7496828
0.75095134
0.75224511
0.75292332
0.75327541
0.67347649
0.79438277
0.87677046
0.94905051
1.0136855
1.0497281
1.0390859
1.0470711
1.0395365
1.0427071
1.0377892
1.0381585
1.0342295
1.0324283
1.0284582
1.0247353
1.0196631
1.0137145
1.0064244
0.99756767
0.98717749
0.9750009
0.96095404
0.94467053
0.92629329
0.90613599
0.8849828
0.86383213
0.84374411
0.82555368
0.80975888
0.79650299
0.78567054
0.77698699
0.77014661
0.76489612
0.76085555
0.75775643
0.75538065
0.75366603
0.75240983
0.75125455
0.75018347
0.74963743
0.74949035
0.74967209
0.75107372
0.75229206
0.75292979
0.75326855
0.6806706
0.80236827
0.88535331
0.9582279
1.0208065
1.0534318
1.0419969
1.0499946
1.0423624
1.0454982
1.0404978
1.0407685
1.0367572
1.0347747
1.0306257
1.0265781
1.0211626
1.0147658
1.0070938
0.99793111
0.98725613
0.97465081
0.95995616
0.94295906
0.92387282
0.90310419
0.88152647
0.86019981
0.84019172
0.82229193
0.80692164
0.79414714
0.78379087
0.77553604
0.76905768
0.76410288
0.76028918
0.75735315
0.75509632
0.75346986
0.75224593
0.75104658
0.75002534
0.74954138
0.74946015
0.74966959
0.75118591
0.75233607
0.75293622
0.75326139
0.68724193
0.80965576
0.89322027
0.9668849
1.0267909
1.0563323
1.0442473
1.0522636
1.0445371
1.0476454
1.0425564
1.0426875
1.0385732
1.0363405
1.0319708
1.0275883
1.0218929
1.0152116
1.0073351
0.99789307
0.98682808
0.97360336
0.95823214
0.94051998
0.9207509
0.89942469
0.87750307
0.85609751
0.83626904
0.81874916
0.80387636
0.7916391
0.7817999
0.7740028
0.76790746
0.76326426
0.75968925
0.75692493
0.75479514
0.75326301
0.75207279
0.75083443
0.74986616
0.74944138
0.74942771
0.74968575
0.75128879
0.75237678
0.75294219
0.75325421
0.69319744
0.81624616
0.9003794
0.97505634
1.031656
1.0585066
1.0458298
1.0539013
1.0460526
1.0491315
1.0438644
1.0437861
1.0396452
1.0371643
1.032629
1.0280243
1.0221914
1.0153053
1.0071728
0.99732685
0.98569827
0.97185456
0.95579178
0.93737528
0.91695615
0.89513246
0.87295139
0.85156628
0.83201542
0.81496099
0.80065352
0.78900382
0.77971732
0.77240235
0.76670719
0.7623885
0.7590617
0.75647612
0.75447906
0.75304599
0.75189194
0.75062805
0.74971389
0.74934075
0.7493815
0.74974764
0.75138382
0.75241485
0.75294771
0.75324743
0.69861533
0.82224314
0.90690768
0.98281778
1.0354915
1.060056
1.0468269
1.0549185
1.0469395
1.0499814
1.044637
1.0444533
1.0401483
1.0375153
1.0329074
1.028136
1.0221444
1.0149814
1.0064527
0.99609628
0.98390376
0.96941169
0.95265871
0.93355228
0.91252022
0.89026387
0.86791241
0.84664791
0.82747088
0.81096316
0.79728341
0.78626599
0.77756254
0.77074951
0.76546797
0.76148376
0.75841246
0.75601137
0.75415109
0.75281877
0.7517031
0.75043117
0.74957496
0.74924767
0.74932193
0.74985511
0.75147322
0.75245127
0.75295302
0.75324124
0.70356933
0.82774729
0.91289616
0.99022088
1.0383906
1.0610884
1.047546
1.0555341
1.0475256
1.050394
1.0450831
1.0447897
1.0403557
1.0375835
1.0328779
1.0278813
1.021627
1.0140645
1.0051073
0.99423302
0.98144813
0.96630614
0.94886346
0.92908414
0.90748047
0.88486128
0.86243172
0.84138814
0.82267802
0.80679302
0.79379718
0.7834506
0.77535502
0.76905903
0.76420081
0.76055819
0.75774744
0.75553494
0.75381465
0.75258143
0.75150396
0.75024318
0.74945108
0.74916528
0.74926319
0.74999408
0.75156074
0.75248701
0.7529583
0.7532356
0.70817085
0.83289825
0.91847854
0.99733033
1.0404967
1.061717
1.0479379
1.0559061
1.0478316
1.0506866
1.0452682
1.0449035
1.0402759
1.037301
1.0324169
1.0270981
1.0205345
1.0125705
1.0031607
0.99174962
0.97836591
0.96256534
0.94443525
0.92400205
0.90187253
0.87896583
0.85655408
0.83583179
0.81767828
0.80248662
0.79022479
0.78058163
0.77311334
0.767345
0.76291626
0.75961967
0.75707243
0.75505073
0.75347196
0.75233434
0.75129078
0.75006137
0.74934144
0.74909828
0.74921844
0.75014771
0.75164876
0.75252236
0.75296362
0.75323046
0.71252292
0.83778423
0.92376711
1.0040938
1.0419518
1.0620559
1.0480315
1.0560542
1.0477831
1.0504177
1.0450297
1.0443944
1.039762
1.0365076
1.0314184
1.0257783
1.018895
1.0105115
1.0006371
0.98868121
0.97468545
0.95822112
0.93940545
0.91834036
0.89573594
0.87262282
0.85032772
0.830026
0.81251437
0.79808053
0.78659621
0.77768269
0.77085556
0.76562106
0.76162451
0.75867579
0.75639314
0.75456292
0.7531252
0.75207799
0.75105992
0.74988328
0.74924313
0.74904842
0.74919309
0.75030527
0.75173591
0.75255705
0.75296899
0.75322584
0.71660784
0.84236367
0.92874481
1.0102685
1.0427324
1.0620132
1.047684
1.0554512
1.0472437
1.0498774
1.0442736
1.0433935
1.0387305
1.0352089
1.0299148
1.0239451
1.0167313
1.0079221
0.99756842
0.98505498
0.97043549
0.95329903
0.93380051
0.91212889
0.88910731
0.8658748
0.8437983
0.82401534
0.80722661
0.79360918
0.78293944
0.77477571
0.76859842
0.76389987
0.76033506
0.75773362
0.7557149
0.75407546
0.75277696
0.75181388
0.75081077
0.74970708
0.74915024
0.74901359
0.74918482
0.75046153
0.75182088
0.75259066
0.75297438
0.75322181
0.72023819
0.84646848
0.93330613
1.015922
1.0427877
1.0611683
1.0467995
1.0546155
1.0462777
1.0487103
1.0431055
1.0420291
1.0372287
1.0334409
1.0279392
1.0216343
1.0140784
1.0048316
0.99398391
0.98090003
0.96564218
0.9478249
0.92764767
0.90540032
0.88202675
0.85876795
0.83701415
0.81784591
0.80185606
0.78910687
0.77928168
0.77188164
0.76635781
0.76219338
0.75905691
0.75679979
0.75504267
0.7535921
0.75242971
0.75154458
0.75055007
0.74953041
0.74904871
0.74898582
0.74918719
0.75061558
0.75190268
0.75262282
0.75297979
0.75321869
0.72336329
0.85010407
0.93746944
1.0209689
1.0421995
1.0598395
1.0455263
1.0532974
1.0449205
1.047209
1.0415201
1.0402172
1.0353131
1.0312488
1.0255282
1.0188776
1.0109642
1.001268
0.98990896
0.97623842
0.96032574
0.94181755
0.92096846
0.89818284
0.87453116
0.85134579
0.83002091
0.81156142
0.79644134
0.78460525
0.77564733
0.76901912
0.76414804
0.76051233
0.75779818
0.75588031
0.7543809
0.75311626
0.75208612
0.75127384
0.75028965
0.74935394
0.74894771
0.74895498
0.74920148
0.7507656
0.75198052
0.75265329
0.75298526
0.75321678
0.72606896
0.85335991
0.94132637
1.0254259
1.0411027
1.0584045
1.0439667
1.0516243
1.0431892
1.0453105
1.0395699
1.0380396
1.0330134
1.028659
1.0227076
1.0157005
1.0074144
0.99725499
0.98536563
0.97109019
0.95450416
0.93529552
0.9137858
0.89050828
0.86666135
0.84365566
0.82286707
0.80520734
0.79102151
0.7801349
0.77205904
0.7662053
0.76198241
0.75886648
0.75656621
0.75498079
0.75373366
0.75265099
0.75174865
0.75100587
0.75003882
0.74918613
0.74884679
0.74891276
0.74925275
0.75090915
0.75205373
0.75268196
0.75299083
0.75321618
0.72843417
0.85629724
0.94493811
1.0292945
1.0397095
1.0565721
1.0420697
1.0496234
1.0411419
1.0430844
1.0372853
1.0354998
1.0303491
1.0256948
1.0195
1.0121267
1.0034504
0.99281184
0.98037002
0.96546823
0.9481886
0.92827103
0.90611823
0.88240514
0.85845595
0.83574234
0.81559884
0.7988265
0.78563205
0.77572231
0.76853619
0.76345497
0.75987241
0.75726412
0.75536698
0.75410641
0.75310478
0.7521988
0.75141921
0.75074364
0.74980213
0.74903447
0.74875567
0.74886194
0.74936387
0.75104392
0.75212199
0.7527088
0.75299657
0.75321696
0.73051586
0.85894779
0.94832893
1.0325634
1.0376137
1.0544581
1.0398809
1.0473063
1.0387844
1.0405234
1.0346715
1.0326215
1.0273405
1.0223771
1.0159264
1.0081751
0.99908969
0.98795347
0.9749345
0.95938267
0.94138867
0.92075733
0.89798738
0.87390689
0.84995845
0.8276548
0.80826533
0.79246222
0.78030603
0.771391
0.76509695
0.76078212
0.75782823
0.75571238
0.75420533
0.75326194
0.7524982
0.75176177
0.75109896
0.75048779
0.74957912
0.74890482
0.74868023
0.74881874
0.74951528
0.75116916
0.75218545
0.75273382
0.75300257
0.75321918
0.73234878
0.86133226
0.95149434
1.0352103
1.0351378
1.0520385
1.0374017
1.0446791
1.0361388
1.0376503
1.031751
1.0294238
1.0240072
1.0187253
1.012004
1.0038618
0.99434505
0.98268914
0.9690651
0.95283705
0.9341082
0.91276311
0.88941222
0.86504508
0.84121108
0.81944067
0.80091285
0.78615214
0.77506892
0.76715942
0.76175823
0.75819985
0.75585789
0.75421711
0.75308515
0.75245121
0.75191789
0.75134153
0.75078814
0.75023627
0.74936682
0.74879231
0.74862477
0.74879722
0.74969594
0.75128722
0.75224446
0.75275699
0.75300892
0.75322296
0.73398492
0.86350185
0.95442125
1.0371681
1.0325091
1.0493412
1.0346524
1.0417692
1.0332162
1.0344864
1.0285416
1.0259274
1.0203664
1.0147558
1.0077461
0.99919729
0.98922445
0.97702362
0.96276452
0.94583274
0.92635138
0.90429964
0.88041701
0.85585734
0.83226204
0.81115163
0.79358764
0.77992849
0.76994032
0.76304476
0.75853818
0.75572165
0.75396795
0.75278366
0.75201085
0.75167646
0.75136723
0.75093953
0.75048648
0.74998543
0.74916203
0.74868149
0.74859092
0.74879494
0.74988354
0.75139992
0.75229896
0.7527783
0.75301575
0.75322842
0.73549721
0.86553441
0.95712844
1.0384455
1.0295612
1.0463839
1.0316551
1.0385909
1.0300411
1.0310507
1.0250613
1.0221474
1.0164314
1.0104796
1.0031614
0.99418805
0.98373065
0.97095631
0.95602957
0.9383664
0.91811802
0.89537615
0.87102472
0.84638146
0.82315863
0.80283618
0.78632753
0.77381201
0.76493451
0.75906568
0.75545422
0.7533591
0.75216352
0.75141687
0.75098848
0.75093806
0.75084727
0.75055734
0.7501938
0.74973315
0.74896405
0.74857819
0.74856274
0.74880377
0.75006976
0.75150574
0.7523486
0.75279779
0.75302325
0.75323568
0.73689558
0.86745274
0.95955949
1.0390234
1.0263601
1.0431785
1.0284281
1.0351622
1.0266248
1.02736
1.0213217
1.0180948
1.0122099
1.0059036
0.99825383
0.98883498
0.97786164
0.96448257
0.94885499
0.93043409
0.9094103
0.88600646
0.86126562
0.83666217
0.81395354
0.79454266
0.7791626
0.76781793
0.7600723
0.75524885
0.75252092
0.7511189
0.75045004
0.75012097
0.75002549
0.75023631
0.75035522
0.75019663
0.74991068
0.74948184
0.74877785
0.74847522
0.74852904
0.74881943
0.75024934
0.75160326
0.75239311
0.75281571
0.75303168
0.75324485
0.73824693
0.86932969
0.96171907
1.0389165
1.0229411
1.0397518
1.0249909
1.0315016
1.0229786
1.0234213
1.0173301
1.0137748
1.0077058
1.0010302
0.99302351
0.98313484
0.9716109
0.95759341
0.94123153
0.92202878
0.90022832
0.87620452
0.85117069
0.82674506
0.8046971
0.78631027
0.77211057
0.76196432
0.75539034
0.75162104
0.74974657
0.74899899
0.74883304
0.74889817
0.74912643
0.74957531
0.74988488
0.74985856
0.74963847
0.74923964
0.74860945
0.74837467
0.74848335
0.74885172
0.75041662
0.75169121
0.75243259
0.75283245
0.75304128
0.75325599
0.73960402
0.8711782
0.96357358
1.0381375
1.0193175
1.0361056
1.0213451
1.0276123
1.0191031
1.0192378
1.013088
1.0091904
1.0029196
0.99585841
0.98746548
0.9770792
0.964968
0.95027779
0.93314944
0.91314483
0.89057655
0.86599156
0.84077968
0.81668269
0.7954407
0.77817038
0.76518825
0.75629229
0.7509321
0.74820091
0.74713147
0.74699522
0.74731295
0.74774889
0.74828955
0.74896505
0.74943193
0.74954256
0.74937878
0.7490139
0.7484638
0.74828129
0.74842736
0.74892056
0.75056784
0.75176884
0.7524675
0.7528485
0.75305226
0.75326907
0.74094673
0.87302056
0.9650703
1.0366947
1.0155059
1.0322432
1.017495
1.0234968
1.0150036
1.0148127
1.0085966
1.0043424
0.99784808
0.99038234
0.98157027
0.97065594
0.95791957
0.942522
0.92459659
0.90377491
0.88045968
0.85539065
0.83013463
0.80652662
0.78622666
0.77014151
0.75842521
0.75085733
0.74672889
0.74499091
0.74466142
0.74510875
0.74588769
0.74667438
0.74751274
0.74840844
0.74900132
0.74924535
0.74913278
0.74880447
0.74832844
0.74820347
0.74838159
0.74902172
0.75070149
0.7518365
0.75249853
0.75286424
0.75306467
0.75328402
0.74228666
0.87490374
0.96619599
1.0346318
1.0115211
1.0281679
1.0134444
1.019155
1.0106814
1.0101436
1.0038539
0.99922658
0.99248398
0.98459114
0.97532446
0.96384983
0.95045078
0.93431199
0.91556189
0.893915
0.86988943
0.84443437
0.81928664
0.79633101
0.77709065
0.76224332
0.75188029
0.74570894
0.74279668
0.74196639
0.7423315
0.74334531
0.74455941
0.74567579
0.74679591
0.74789816
0.74860449
0.74896197
0.74890112
0.74860654
0.74821189
0.74815325
0.74836132
0.74915289
0.7508179
0.75189538
0.75252636
0.75287993
0.75307846
0.75330066
0.74356877
0.87683969
0.96687427
1.0319697
1.0073471
1.0238722
1.0091871
1.0145856
1.0061325
1.0052316
0.99885275
0.99383462
0.98681412
0.97847027
0.96871235
0.95664467
0.94254562
0.92563219
0.90603243
0.8835612
0.85887979
0.83315896
0.80828724
0.7861426
0.76805572
0.75451357
0.74562219
0.74087969
0.73911232
0.73910737
0.74015509
0.74170706
0.74332676
0.74475196
0.74613657
0.74743061
0.74824743
0.74869008
0.74868433
0.74841705
0.74811188
0.74811618
0.74836484
0.74930231
0.75092124
0.7519474
0.75255141
0.75289543
0.75309347
0.75331886
0.74479353
0.8788521
0.96703699
1.0287603
1.0029926
1.0193575
1.0047249
1.0097881
1.0013524
1.0000694
0.99358094
0.98815133
0.98082221
0.97200333
0.96171706
0.94902343
0.93418754
0.91646724
0.89599702
0.87271537
0.84745397
0.82161131
0.7971926
0.77600414
0.75914461
0.74702476
0.73970923
0.736374
0.73563229
0.73643038
0.73813616
0.74019248
0.74218863
0.74390167
0.74553407
0.74700509
0.74792657
0.74843123
0.74848284
0.74823685
0.74802244
0.74809489
0.74838036
0.74946013
0.75101811
0.75199489
0.75257381
0.75291004
0.75310928
0.7533386
0.74596942
0.88093892
0.96665229
1.0250517
0.99845976
1.0146193
1.0000511
1.0047521
0.99632758
0.99463912
0.98802078
0.98215978
0.97449142
0.96517383
0.95432196
0.94096828
0.92535888
0.90679956
0.88544416
0.86138102
0.83564003
0.80984033
0.786054
0.76594667
0.75039551
0.73985953
0.73417683
0.73215001
0.73235156
0.73394757
0.73627266
0.73879901
0.7411427
0.74312333
0.74498878
0.74662239
0.74763517
0.74818704
0.74829631
0.7480704
0.74793844
0.74807546
0.74840323
0.74962202
0.75111328
0.7520404
0.75259417
0.75292289
0.75312473
0.75335991
0.74707931
0.8831033
0.96569898
1.0208657
0.99374499
1.0096468
0.99514996
0.99945791
0.9910382
0.98891884
0.98215523
0.97584573
0.96780703
0.95796521
0.94650941
0.93246056
0.91604108
0.89661226
0.87436595
0.84957097
0.82347713
0.79790264
0.77492053
0.75599839
0.74188758
0.73308703
0.72902221
0.72816263
0.72929769
0.73165626
0.73456179
0.73752343
0.74018649
0.74241538
0.74450077
0.74628029
0.74736985
0.74795806
0.74812272
0.74792456
0.7478603
0.74804783
0.74844032
0.74978792
0.75120935
0.75208662
0.75261416
0.7529338
0.75313798
0.75338277
0.74806921
0.88529824
0.96413938
1.016195
0.98880811
1.0044111
0.98999639
0.99388356
0.98546686
0.98289771
0.97597149
0.96919807
0.9607535
0.95036016
0.93826064
0.92348031
0.9062134
0.88588698
0.86275624
0.83730308
0.81100964
0.78585213
0.76383158
0.74619321
0.73372108
0.72675013
0.72419372
0.72441764
0.72647686
0.72955344
0.73299898
0.73636163
0.73931689
0.74177598
0.74406911
0.74597617
0.74712838
0.74774452
0.74795933
0.74780299
0.74779861
0.74801413
0.74850301
0.74995666
0.75130695
0.75213528
0.75263569
0.75294295
0.75314875
0.75340691
0.74894378
0.88742594
0.96191683
1.0111369
0.98362433
0.99889092
0.98457735
0.98802259
0.97960748
0.97657488
0.96945867
0.96220258
0.95331352
0.94233873
0.92955544
0.91400556
0.8958538
0.87460693
0.85061611
0.82460717
0.79829197
0.77374432
0.75282391
0.73660838
0.72598192
0.7208535
0.7196423
0.72094228
0.72388632
0.72763403
0.73157926
0.73530921
0.73853056
0.74120293
0.74369188
0.74570724
0.74690955
0.74754705
0.7478055
0.74770137
0.74774343
0.74799455
0.74859648
0.75012571
0.75140459
0.75218551
0.75265865
0.75295111
0.75315986
0.75343161
0.74968122
0.88942274
0.95904068
1.0059788
0.97820403
0.99309805
0.97890083
0.98187821
0.97345652
0.96993933
0.96260133
0.95483985
0.94546756
0.9338805
0.92037198
0.9040117
0.88493748
0.86275583
0.8379516
0.8115197
0.78537932
0.76162774
0.74193304
0.72735489
0.71872527
0.71534455
0.71537253
0.71774337
0.72152052
0.72589161
0.73029659
0.73436104
0.73782353
0.74069338
0.74336648
0.74547067
0.74671253
0.74736678
0.74766139
0.74761813
0.74771413
0.74799993
0.74871625
0.75029141
0.75149951
0.75223501
0.75268204
0.75296016
0.7531734
0.75345578
0.75036988
0.89123954
0.95555371
1.0005679
0.97256909
0.9870438
0.97296362
0.9754402
0.96699631
0.96296861
0.95537842
0.94709106
0.93719615
0.9249634
0.91068566
0.8934709
0.87343923
0.85032257
0.8247807
0.7980895
0.77233164
0.74955092
0.73122461
0.71853961
0.71197609
0.71016047
0.71141649
0.71481668
0.71937262
0.72431921
0.72914471
0.73351178
0.73719174
0.74024426
0.74308997
0.74526357
0.74653634
0.74720483
0.74752762
0.74754971
0.74769948
0.7480193
0.74885833
0.75044975
0.75158934
0.75228258
0.75270583
0.75297093
0.75318985
0.75347919
0.75104227
0.89282802
0.95148994
0.9947241
0.96669586
0.98069847
0.96674129
0.96868103
0.96020368
0.95564175
0.94777169
0.93893907
0.92847914
0.91556264
0.90046734
0.88235183
0.86133295
0.83730121
0.81112945
0.78437008
0.75920394
0.73755721
0.72080857
0.71024085
0.70569256
0.70529497
0.70778482
0.71215508
0.71743393
0.72290877
0.72811653
0.73275562
0.73663119
0.73985322
0.74285878
0.74508319
0.74637966
0.74706187
0.74740766
0.74749167
0.74769174
0.74804737
0.74901781
0.75059773
0.75167283
0.75232785
0.7527302
0.75298387
0.75320892
0.75350216
0.75170955
0.89412531
0.94686236
0.98865539
0.96055026
0.97403084
0.96020965
0.9615814
0.95306183
0.94794882
0.939766
0.93036574
0.91929219
0.90564663
0.88968248
0.87062022
0.84859628
0.82369634
0.79703844
0.77042277
0.74605348
0.72570193
0.71082075
0.70250796
0.69979604
0.70078682
0.7044721
0.70974987
0.71569529
0.72165196
0.72720491
0.73208711
0.73613888
0.73951972
0.74266783
0.74492764
0.74624204
0.74693854
0.74730533
0.74744284
0.74768216
0.74808741
0.74918965
0.75073438
0.75174996
0.75237077
0.75275509
0.75299919
0.75323023
0.75352496
0.75224675
0.89510783
0.94172325
0.98218742
0.95412317
0.96703131
0.9533586
0.95413463
0.94556279
0.93988165
0.93134383
0.92134487
0.90960283
0.89517762
0.87829175
0.85824042
0.83521064
0.80952228
0.7825557
0.75630812
0.73293412
0.71408349
0.70136818
0.6953234
0.69425948
0.69665362
0.70146986
0.70759005
0.71414611
0.72053953
0.72640229
0.73150108
0.73571246
0.73924344
0.74251084
0.74479606
0.74612406
0.74683486
0.7472206
0.74740653
0.74767557
0.74815187
0.74936879
0.75086098
0.75182196
0.75241152
0.75277987
0.75301707
0.75325341
0.75354763
0.75256717
0.89577195
0.93614049
0.97538153
0.94740922
0.95969738
0.94618747
0.94633832
0.9376981
0.93142252
0.92247705
0.91183955
0.89937018
0.88411163
0.86625212
0.84517862
0.82116702
0.79480826
0.76774162
0.74209113
0.71990746
0.70284798
0.69252122
0.68861093
0.68911995
0.69289155
0.69876736
0.70566391
0.71277555
0.71956225
0.72570165
0.73099319
0.73534904
0.73901867
0.74238402
0.74468793
0.74602539
0.74674705
0.74714941
0.74738463
0.74768573
0.74824353
0.74955066
0.75098025
0.75189081
0.75245088
0.75280357
0.75303757
0.75327813
0.75357009
0.75259065
0.8960889
0.93021086
0.96822683
0.94040806
0.9520335
0.93869225
0.93818034
0.92944224
0.92253716
0.91312357
0.90180395
0.88854742
0.87240103
0.85351955
0.83140469
0.80646646
0.77959422
0.75265952
0.72783589
0.70705536
0.69213315
0.68430154
0.68231736
0.68440394
0.68949125
0.69635117
0.70395799
0.71157177
0.71871073
0.72509643
0.73055867
0.73504301
0.73883543
0.74228644
0.74460157
0.74594404
0.74667385
0.7470896
0.74737345
0.74770981
0.7483588
0.74973031
0.75109458
0.75195769
0.75248962
0.75282651
0.75306069
0.75330408
0.75359218
0.75228132
0.89607918
0.92437653
0.96075685
0.93313428
0.94402616
0.93084612
0.92961967
0.92074621
0.91317704
0.90323487
0.89118774
0.87708413
0.85999483
0.84005053
0.81689682
0.79112577
0.76393562
0.73737971
0.7136136
0.69451598
0.68204739
0.67665794
0.67645599
0.68011809
0.68644016
0.69420689
0.70245871
0.71052347
0.71797684
0.72458096
0.73019141
0.7347854
0.73869091
0.74221645
0.74453373
0.74587564
0.74661313
0.74704282
0.74736617
0.74774212
0.74849312
0.74990455
0.7512043
0.75202272
0.75252827
0.75285006
0.75308624
0.75333095
0.75361378
0.75157918
0.89577541
0.91668993
0.95292669
0.9255304
0.93561235
0.9225865
0.92060647
0.91155139
0.90329268
0.89276114
0.87993807
0.86492654
0.84684068
0.82580444
0.80164322
0.77517516
0.74789612
0.72197357
0.69950182
0.68245633
0.67265102
0.6695078
0.67106918
0.67625155
0.68372239
0.69231803
0.70115167
0.70961985
0.71735325
0.72414887
0.72988279
0.73456653
0.73859797
0.74217028
0.7444799
0.74581621
0.74656213
0.74701065
0.74736831
0.74778515
0.74864104
0.75007156
0.75130904
0.75208603
0.75256746
0.75287504
0.75311396
0.75335848
0.75363475
0.75033905
0.89488273
0.90926395
0.94462404
0.91751795
0.92672574
0.91386474
0.91109786
0.90181524
0.89283549
0.88164921
0.86799759
0.85201619
0.83288564
0.81074724
0.7856476
0.75866256
0.7315511
0.70652423
0.68562461
0.67102448
0.66393127
0.66283351
0.6661765
0.67279054
0.68132056
0.69066813
0.70002371
0.70885183
0.71683268
0.72379092
0.7296228
0.7343863
0.73855964
0.74213957
0.74443474
0.74576363
0.74652007
0.74699291
0.74738807
0.74784518
0.74879779
0.75023031
0.75140871
0.75214774
0.75260742
0.75290186
0.75314355
0.75338639
0.75365503
0.74828938
0.89358867
0.90154072
0.9358379
0.90908396
0.9173508
0.90465164
0.90105478
0.89149027
0.88175057
0.86983711
0.85530152
0.83829239
0.8180785
0.79485438
0.76892786
0.74164796
0.71497781
0.69111998
0.6721563
0.66032043
0.65580428
0.65668246
0.66176669
0.66971649
0.67921492
0.68924022
0.69906243
0.70821002
0.71640429
0.72349308
0.72940307
0.73426537
0.73855467
0.74211742
0.74439421
0.7457189
0.74649132
0.7469914
0.74741768
0.74792264
0.74895905
0.75038051
0.75150362
0.75220786
0.75264786
0.75293064
0.75317475
0.75341447
0.75367456
0.74555431
0.89187053
0.89322102
0.92655736
0.90020994
0.9074482
0.89489699
0.89042099
0.88051452
0.86997044
0.85725617
0.84178114
0.82369342
0.80237399
0.77811565
0.75152214
0.72420678
0.69826614
0.67587266
0.6592864
0.6503806
0.64822157
0.65108648
0.65782657
0.66700934
0.67738603
0.68801895
0.69825634
0.70768213
0.71605179
0.7232412
0.7292251
0.7342133
0.73856895
0.74210795
0.74435953
0.74568569
0.74647878
0.74700567
0.74745282
0.74801603
0.7491222
0.75052238
0.75159443
0.75226647
0.75268805
0.75296145
0.75320733
0.7534425
0.75369328
0.74208297
0.88963549
0.88442472
0.91670374
0.89082922
0.89695709
0.88453495
0.87912938
0.86881026
0.85742151
0.84383273
0.82736704
0.80815981
0.78573588
0.76053682
0.73348435
0.70642184
0.68151582
0.66095111
0.64716222
0.64115037
0.64120834
0.64604732
0.65433515
0.66464608
0.67581389
0.68698888
0.69759078
0.70724941
0.71575694
0.7230326
0.72910852
0.73420414
0.73859885
0.742118
0.74433906
0.74566845
0.74648185
0.74703021
0.74749457
0.7481239
0.74928559
0.750657
0.75168155
0.75232362
0.75272775
0.75299427
0.7532409
0.75347029
0.75371117
0.73782177
0.88680485
0.87508311
0.90622305
0.88088701
0.8858196
0.87349439
0.86710603
0.85629621
0.84402496
0.82949395
0.81198864
0.79163578
0.76814015
0.74214407
0.71488833
0.68839074
0.66484782
0.64657308
0.63587033
0.63255206
0.63481468
0.64155084
0.65126966
0.66260374
0.67447975
0.68613361
0.69704566
0.70689078
0.71551404
0.72288658
0.72906028
0.73421811
0.73864464
0.74214254
0.74434038
0.74566969
0.74649808
0.74706244
0.7475474
0.74824409
0.74944777
0.75078569
0.75176515
0.75237936
0.75276737
0.75302896
0.75327478
0.75349771
0.75372821
0.73277097
0.88331395
0.86518149
0.89504762
0.87030718
0.8739539
0.86168327
0.85427801
0.84289289
0.8297004
0.81416542
0.79557759
0.77407262
0.74957885
0.72298317
0.6958217
0.67022648
0.64842366
0.63293123
0.62540188
0.62457839
0.62905914
0.63757437
0.6486033
0.66085841
0.67336374
0.68543198
0.6965971
0.70659724
0.71534283
0.72281369
0.72905236
0.73424991
0.73870436
0.74217675
0.74435878
0.74568519
0.74652226
0.74710371
0.74761205
0.7483736
0.749607
0.75090848
0.7518455
0.75243406
0.75280721
0.75306519
0.75330839
0.75352461
0.75374439
0.72689876
0.87902424
0.8546567
0.88308593
0.85899464
0.86127421
0.84900369
0.8405712
0.82851879
0.8143683
0.79777094
0.77806493
0.7554308
0.73006401
0.70312334
0.6763901
0.65206665
0.63247307
0.62016974
0.61567055
0.61729369
0.62392799
0.63409231
0.64630914
0.65938685
0.6724438
0.68485885
0.69623111
0.70638736
0.7152549
0.72279201
0.72906849
0.73430212
0.73877663
0.74222001
0.74438614
0.74570891
0.74655303
0.74715405
0.74768824
0.74851035
0.74976199
0.75102489
0.75192283
0.75248804
0.75284746
0.75310252
0.75334164
0.75355092
0.75375971
0.72015742
0.87373167
0.84345992
0.87024711
0.84686461
0.84769806
0.83537651
0.82589367
0.81309247
0.79794316
0.78022882
0.75938502
0.73568453
0.70963071
0.6826532
0.65671643
0.63407413
0.61723882
0.60832763
0.60664283
0.610732
0.61939858
0.6310738
0.64435836
0.65816336
0.67169259
0.68439156
0.69595842
0.70627268
0.71522449
0.72280027
0.72910404
0.7343746
0.73886078
0.74227185
0.74441826
0.74573851
0.74659208
0.74721134
0.74777554
0.74865217
0.74991234
0.75113541
0.75199754
0.7525416
0.75288824
0.75314062
0.75337476
0.75357653
0.75377417
0.71257067
0.8673147
0.83153074
0.8564365
0.83381938
0.83314698
0.82071831
0.81016671
0.79652774
0.78032992
0.76145071
0.7394751
0.71482811
0.68834145
0.66168675
0.63695563
0.61648735
0.60291615
0.59734453
0.59837954
0.60488849
0.6154422
0.62848708
0.6427223
0.6571599
0.67108172
0.68402555
0.69579331
0.70622706
0.71522859
0.72282966
0.7291613
0.73446476
0.73895477
0.7423303
0.74445667
0.74577593
0.7466406
0.74727637
0.74787308
0.74879717
0.75005769
0.75124091
0.75206999
0.75259481
0.75292964
0.75317937
0.75340789
0.75360139
0.75378781
0.70416573
0.85954466
0.81880486
0.84156797
0.81976141
0.81755328
0.80494244
0.79329879
0.77871888
0.76141323
0.74134079
0.71828767
0.69288478
0.6662878
0.6403623
0.61729424
0.59958737
0.58959495
0.58717063
0.59092981
0.59974028
0.61202361
0.62629728
0.64136898