/*--------------------------------*- C++ -*----------------------------------*\
  =========                 |
  \\      /  F ield         | OpenFOAM: The Open Source CFD Toolbox
   \\    /   O peration     | Website:  https://openfoam.org
    \\  /    A nd           | Version:  8
     \\/     M anipulation  |
\*---------------------------------------------------------------------------*/
FoamFile
{
    version     2.0;
    format      ascii;
    class       surfaceScalarField;
    location    "0.0900078";
    object      meshPhi;
}
// * * * * * * * * * * * * * * * * * * * * * * * * * * * * * * * * * * * * * //

dimensions      [0 3 -1 0 0 0 0];

internalField   nonuniform List<scalar> 
39600
(
-5.6271608e-05
-3.5219056e-06
3.5312e-06
-5.6314495e-05
-4.2354192e-06
4.2972482e-06
-5.6364732e-05
-5.0743766e-06
5.1477556e-06
-5.6427145e-05
-6.0786676e-06
6.1667724e-06
-5.6503791e-05
-7.2813678e-06
7.3872798e-06
-5.6597311e-05
-8.7217461e-06
8.8489303e-06
-5.6711232e-05
-1.0446503e-05
1.0599055e-05
-5.6850601e-05
-1.251131e-05
1.2694121e-05
-5.7021326e-05
-1.4982577e-05
1.5201319e-05
-5.7232393e-05
-1.7939139e-05
1.8200436e-05
-5.7507036e-05
-2.1473992e-05
2.1785792e-05
-5.7875621e-05
-2.569647e-05
2.6068355e-05
-5.838008e-05
-3.0734386e-05
3.1177944e-05
-5.9070897e-05
-3.6735858e-05
3.7265305e-05
-5.9955293e-05
-4.3872297e-05
4.4504199e-05
-6.1134612e-05
-5.234032e-05
5.3094574e-05
-6.2453639e-05
-6.2360118e-05
6.3262603e-05
-6.3831624e-05
-7.4186713e-05
7.5266084e-05
-6.5542707e-05
-8.8083725e-05
8.9371815e-05
-6.7615233e-05
-0.00010428372
0.00010582155
-7.002777e-05
-0.00012301236
0.00012485091
-7.2779996e-05
-0.0001444067
0.00014661002
-7.5717708e-05
-0.00016873628
0.00017140981
-7.9523416e-05
-0.00019610543
0.0001994137
-8.7089404e-05
-0.0002258623
0.00023002505
-0.00010004016
-0.00025717236
0.00026260994
-0.00011734561
-0.00028982706
0.00029685954
-0.00013958983
-0.00032438658
0.00033362233
-0.00017065788
-0.00035942749
0.00037214488
-0.00022776962
-0.00038172467
0.00039894995
-0.00029895384
-0.00038251777
0.00040510287
-0.00036091023
-0.00038467979
0.00041441478
-0.00043240342
-0.00039717105
0.0004367747
-0.00051740133
-0.00039596711
0.00044631393
-0.00061514828
-0.00037265044
0.00043528493
-0.0007197508
-0.00033362923
0.00041086159
-0.00083474101
-0.00027788919
0.0003714791
-0.00095950895
-0.00021015706
0.00032248168
-0.001089293
-0.00013535727
0.00026778878
-0.0012515654
-5.0763179e-05
0.00020666501
-0.0014171678
4.0648311e-05
0.00014196678
-0.0015780983
0.00021329696
-9.8743883e-06
-0.0017332818
0.00051502788
-0.00029613811
-0.001857144
0.00083760772
-0.00060423438
-0.0019310098
0.0011484097
-0.00091033582
-0.0018836797
0.0014894019
-0.0012666844
-0.0017505543
0.001828075
-0.0016353063
-0.0015822653
0.0021228585
-0.001956537
-0.001260651
0.0023319416
-0.0022213294
0.0013050204
-0.0012817697
-4.5246714e-05
-3.4849359e-06
-4.5289951e-05
-4.1911686e-06
-4.5343199e-05
-5.0209607e-06
-4.5406638e-05
-6.0149284e-06
-4.5475199e-05
-7.2055327e-06
-4.5549842e-05
-8.6312891e-06
-4.5626254e-05
-1.0338693e-05
-4.5708432e-05
-1.2382673e-05
-4.5797636e-05
-1.4829028e-05
-4.5903307e-05
-1.7755534e-05
-4.6042798e-05
-2.1254342e-05
-4.6244953e-05
-2.5433794e-05
-4.653982e-05
-3.0421112e-05
-4.6967102e-05
-3.636379e-05
-4.7516912e-05
-4.3434088e-05
-4.8270492e-05
-5.1825544e-05
-4.9177203e-05
-6.1753967e-05
-5.0211998e-05
-7.3464859e-05
-5.1597688e-05
-8.7213259e-05
-5.3363576e-05
-0.00010324022
-5.5491905e-05
-0.00012175882
-5.7951085e-05
-0.00014290943
-6.066263e-05
-0.0001669028
-6.4510243e-05
-0.00019376571
-7.1991225e-05
-0.00022283664
-8.4575653e-05
-0.00025313319
-0.00010085503
-0.00028454222
-0.00012244748
-0.00031715147
-0.00015325886
-0.00034872712
-0.00020866081
-0.00036664267
-0.00027749305
-0.00036274438
-0.00033946065
-0.00035818901
-0.0004111553
-0.00036072514
-0.00049529927
-0.00034866335
-0.00059280876
-0.00031327329
-0.00069714331
-0.00025998852
-0.00081291579
-0.00018789079
-0.00093723873
-0.00010183876
-0.0010682102
-7.0008329e-06
-0.0012297795
0.00010070167
-0.0013984598
0.00021957162
-0.0015614218
0.000416396
-0.001718654
0.00073429956
-0.0018439333
0.0010699381
-0.0019203507
0.0013848931
-0.0018998233
0.0017122973
-0.0017607934
0.0020220776
-0.0015971388
0.002289653
-0.0012751876
0.0024433797
0.0013289518
-3.4782288e-05
-3.4609155e-06
-3.4643577e-05
-4.1634839e-06
-3.4510377e-05
-4.9891004e-06
-3.4409354e-05
-5.9781113e-06
-3.4345171e-05
-7.1626177e-06
-3.4312003e-05
-8.5809006e-06
-3.4305643e-05
-1.0279013e-05
-3.4326539e-05
-1.2311538e-05
-3.4378144e-05
-1.4743612e-05
-3.4462886e-05
-1.7652503e-05
-3.4587019e-05
-2.1129596e-05
-3.475953e-05
-2.5283123e-05
-3.4984415e-05
-3.0239853e-05
-3.526889e-05
-3.6148495e-05
-3.5608392e-05
-4.3181612e-05
-3.6051815e-05
-5.1530045e-05
-3.6637452e-05
-6.1406344e-05
-3.7436952e-05
-7.3047037e-05
-3.8575521e-05
-8.6706545e-05
-4.0083749e-05
-0.00010263109
-4.1966052e-05
-0.00012101999
-4.4143225e-05
-0.00014201482
-4.6569534e-05
-0.00016578092
-5.031715e-05
-0.000192304
-5.7646297e-05
-0.00022083895
-6.9696671e-05
-0.00025028749
-8.4929472e-05
-0.00028065426
-0.0001057992
-0.00031152465
-0.00013639456
-0.00033996764
-0.00019008006
-0.00035387206
-0.00025652481
-0.00034551436
-0.00031845222
-0.00033439217
-0.00039005255
-0.00032739947
-0.00047333535
-0.00030475968
-0.00057038759
-0.0002575105
-0.00067435155
-0.00019015483
-0.00079082368
-0.00010174157
-0.00091469263
2.6018041e-06
-0.0010468441
0.00011748525
-0.0012079035
0.00024826304
-0.0013793061
0.00039452799
-0.0015443011
0.00061622421
-0.0017036846
0.00095178528
-0.0018303758
0.0013014083
-0.0019097996
0.0016214039
-0.0019114603
0.0019390162
-0.001770421
0.0022231062
-0.0016112681
0.0024598542
-0.0012893916
0.0025588152
0.0013572412
-2.509779e-05
-3.4483885e-06
-2.4926287e-05
-4.1477065e-06
-2.4743523e-05
-4.9693521e-06
-2.4568992e-05
-5.9538714e-06
-2.4411252e-05
-7.1335782e-06
-2.4267817e-05
-8.5468923e-06
-2.4141902e-05
-1.0239773e-05
-2.4042026e-05
-1.2266939e-05
-2.3976763e-05
-1.469347e-05
-2.3955267e-05
-1.7596514e-05
-2.3979048e-05
-2.1067445e-05
-2.4050966e-05
-2.5214451e-05
-2.4162892e-05
-3.0164053e-05
-2.4301103e-05
-3.6065751e-05
-2.4469514e-05
-4.3091923e-05
-2.4696685e-05
-5.1432119e-05
-2.5052325e-05
-6.1294607e-05
-2.5630845e-05
-7.2913747e-05
-2.6512515e-05
-8.6547122e-05
-2.776567e-05
-0.00010243847
-2.9391794e-05
-0.00012077687
-3.127315e-05
-0.00014170006
-3.332153e-05
-0.00016535136
-3.6853228e-05
-0.00019170356
-4.4081575e-05
-0.00021986891
-5.5605466e-05
-0.00024863923
-6.9952451e-05
-0.00027810774
-9.0202924e-05
-0.00030736702
-0.00012049236
-0.00033293756
-0.00017255924
-0.00034315124
-0.00023692374
-0.00033052189
-0.00029869982
-0.00031302222
-0.00037001077
-0.00029692117
-0.00045255037
-0.00026398004
-0.00054901588
-0.00020506453
-0.00065276506
-0.00012379912
-0.00076968525
-1.9135774e-05
-0.00089347007
0.00010350344
-0.0010264947
0.00023846496
-0.0011874469
0.00039237234
-0.0013611974
0.0005660733
-0.0015282851
0.00081320497
-0.0016899393
0.0011677288
-0.001818434
0.0015322684
-0.0019012711
0.001858131
-0.0019194088
0.0021687239
-0.0017790454
0.0024296834
-0.0016248361
0.0026340829
-0.0013028344
0.0026791078
0.0013898128
-1.615222e-05
-3.4483563e-06
-1.6092297e-05
-4.1476169e-06
-1.6000613e-05
-4.9691744e-06
-1.5868363e-05
-5.953682e-06
-1.5703134e-05
-7.1333604e-06
-1.5510278e-05
-8.5467692e-06
-1.530116e-05
-1.0239965e-05
-1.5089117e-05
-1.2267824e-05
-1.4884139e-05
-1.4695752e-05
-1.4702579e-05
-1.7601474e-05
-1.4543925e-05
-2.107693e-05
-1.4420963e-05
-2.5231185e-05
-1.4325816e-05
-3.0191678e-05
-1.4258086e-05
-3.6108536e-05
-1.4215643e-05
-4.3154658e-05
-1.4230784e-05
-5.1518499e-05
-1.4364658e-05
-6.1406666e-05
-1.4689904e-05
-7.3054265e-05
-1.5300774e-05
-8.672026e-05
-1.6283418e-05
-0.00010264463
-1.7638457e-05
-0.00012100833
-1.9199258e-05
-0.0001419437
-2.0552971e-05
-0.00016561897
-2.3753861e-05
-0.00019199544
-3.1160466e-05
-0.00021992687
-4.2190991e-05
-0.00024812765
-5.5796994e-05
-0.00027682678
-7.5589789e-05
-0.00030459507
-0.00010552503
-0.00032748636
-0.00015605653
-0.00033426664
-0.00021855583
-0.00031759076
-0.00028006614
-0.00029395156
-0.0003509777
-0.00026907155
-0.000432827
-0.00022606529
-0.0005286399
-0.00015568776
-0.00063223679
-6.0684168e-05
-0.00074945605
6.0157075e-05
-0.00087335964
0.00020108374
-0.0010070767
0.00035616659
-0.0011681415
0.00053325505
-0.001344021
0.00073456112
-0.0015132108
0.0010077626
-0.0016772136
0.0013822759
-0.001807742
0.0017625728
-0.0018941886
0.0020952483
-0.0019248045
0.0024008898
-0.0017869389
0.0026405549
-0.00163785
0.0028114232
-0.0013155543
0.002803199
0.001426151
-7.6313686e-06
-3.4601771e-06
-7.5493187e-06
-4.1621904e-06
-7.4352769e-06
-4.9871215e-06
-7.2880347e-06
-5.9756774e-06
-7.1176665e-06
-7.1601592e-06
-6.9253383e-06
-8.5792093e-06
-6.7176059e-06
-1.027908e-05
-6.4972956e-06
-1.2314911e-05
-6.264132e-06
-1.4752588e-05
-6.0251312e-06
-1.7670531e-05
-5.7721209e-06
-2.1161649e-05
-5.5172562e-06
-2.533636e-05
-5.2545158e-06
-3.0323602e-05
-4.9978001e-06
-3.6275223e-05
-4.7617287e-06
-4.3365283e-05
-4.5718439e-06
-5.1782487e-05
-4.474891e-06
-6.173406e-05
-4.5420764e-06
-7.3455469e-05
-4.8779466e-06
-8.7206796e-05
-5.5794672e-06
-0.00010322759
-6.645854e-06
-0.00012169273
-7.8123184e-06
-0.00014272478
-7.8848626e-06
-0.00016659644
-1.0661953e-05
-0.00019324762
-1.8786706e-05
-0.00022107493
-2.9401211e-05
-0.00024877232
-4.240195e-05
-0.00027678283
-6.1870403e-05
-0.00030312383
-9.1418134e-05
-0.00032351589
-0.00014048017
-0.00032712259
-0.00020125857
-0.00030660177
-0.00026240336
-0.00027706965
-0.00033284919
-0.00024375812
-0.00041402217
-0.0001909483
-0.00050914988
-0.00010931556
-0.00061260252
-7.4869821e-07
-0.00073003193
0.00013617083
-0.00085415151
0.00029537508
-0.00098845183
0.00047061021
-0.0011497318
0.00067094535
-0.0013276228
0.0009000172
-0.0014988912
0.0011998141
-0.0016652928
0.001595284
-0.0017979758
0.0019921556
-0.0018880916
0.0023324659
-0.0019283527
0.0026348855
-0.0017942286
0.0028550564
-0.001650369
0.0029924783
-0.0013275621
0.002931877
0.0014662896
3.3697406e-07
-3.4830273e-06
4.2337024e-07
-4.1893876e-06
5.3639312e-07
-5.019389e-06
6.7871495e-07
-6.013972e-06
8.4035623e-07
-7.205768e-06
1.0257384e-06
-8.6337531e-06
1.233331e-06
-1.0344682e-05
1.4669026e-06
-1.239435e-05
1.7335849e-06
-1.4849473e-05
2.0306569e-06
-1.7789521e-05
2.370854e-06
-2.1308625e-05
2.7416238e-06
-2.5518722e-05
3.148992e-06
-3.0550459e-05
3.5714689e-06
-3.6557498e-05
3.9850291e-06
-4.3715827e-05
4.3664194e-06
-5.2215559e-05
4.6810089e-06
-6.2264483e-05
4.8604389e-06
-7.4100671e-05
4.7896517e-06
-8.7986782e-05
4.3702684e-06
-0.00010416407
3.6104036e-06
-0.00012280246
2.864023e-06
-0.00014399156
4.7949097e-06
-0.00016824879
2.5507541e-06
-0.00019553012
-6.9767206e-06
-0.00022338278
-1.7213238e-05
-0.00025053634
-2.9735215e-05
-0.00027791429
-4.8992336e-05
-0.00030289501
-7.8123761e-05
-0.00032092957
-0.00012577565
-0.00032158486
-0.00018493885
-0.00029744653
-0.00024562984
-0.0002622799
-0.00031556532
-0.00022081859
-0.00039605601
-0.00015843512
-0.00049048207
-6.5759659e-05
-0.00059376823
5.6183993e-05
-0.00071135091
0.00020908315
-0.00083572488
0.00038654057
-0.0009705359
0.00058195227
-0.0011320688
0.00080557417
-0.0013119092
0.0010626244
-0.0014852139
0.0013896014
-0.0016540423
0.0018068366
-0.0017889362
0.0022210374
-0.0018827072
0.0025698537
-0.001930632
0.0028704449
-0.0018010515
0.0030726195
-0.0016623593
0.0031767568
-0.0013388503
0.0030644672
0.0015098487
7.770075e-06
-3.5169114e-06
7.8280419e-06
-4.2300524e-06
7.9002168e-06
-5.0679216e-06
8.0046018e-06
-6.0718013e-06
8.1394158e-06
-7.2747709e-06
8.3173897e-06
-8.7164044e-06
8.5399734e-06
-1.0444146e-05
8.8118716e-06
-1.2514631e-05
9.1392649e-06
-1.4995553e-05
9.5165621e-06
-1.7967499e-05
9.9551635e-06
-2.1526017e-05
1.0438729e-05
-2.578467e-05
1.0973446e-05
-3.0876078e-05
1.153527e-05
-3.695635e-05
1.2099699e-05
-4.4203795e-05
1.2648476e-05
-5.2810612e-05
1.3151987e-05
-6.2986771e-05
1.3553167e-05
-7.4975573e-05
1.3740039e-05
-8.9045063e-05
1.360627e-05
-0.00010543818
1.3140901e-05
-0.00012431398
1.2544238e-05
-0.00014565493
1.5082847e-05
-0.00016999014
1.3458512e-05
-0.00019769686
4.0440687e-06
-0.00022614717
-5.6528655e-06
-0.00025332663
-1.7774727e-05
-0.00028012986
-3.6911744e-05
-0.00030380415
-6.5611011e-05
-0.0003196206
-0.00011191378
-0.0003175275
-0.00016954281
-0.00028995332
-0.00022970909
-0.00024938801
-0.0002991007
-0.00020007433
-0.00037889325
-0.00012836537
-0.00047260617
-2.4854726e-05
-0.00057569062
0.00011028323
-0.00069338445
0.00027904603
-0.00081801488
0.00047472756
-0.00095327668
0.00069032114
-0.0011150611
0.00093724657
-0.001296818
0.0012224337
-0.0014720935
0.0015770707
-0.0016433499
0.0020168575
-0.0017804568
0.0024491003
-0.0018778037
0.0028071631
-0.0019319303
0.0031071853
-0.0018074655
0.0032929428
-0.0016737976
0.0033646558
-0.001349355
0.0032014821
0.0015568495
1.4740285e-05
-3.5614023e-06
1.4805173e-05
-4.2836981e-06
1.4885468e-05
-5.1325456e-06
1.5001789e-05
-6.1498615e-06
1.5154796e-05
-7.3691621e-06
1.5357506e-05
-8.8305291e-06
1.5609929e-05
-1.0582041e-05
1.5916733e-05
-1.2681091e-05
1.6282554e-05
-1.5196247e-05
1.6702452e-05
-1.8209405e-05
1.7189079e-05
-2.1817542e-05
1.7727983e-05
-2.6136164e-05
1.8330607e-05
-3.1300267e-05
1.8976494e-05
-3.7468775e-05
1.964759e-05
-4.482393e-05
2.0326453e-05
-5.3560758e-05
2.0990403e-05
-6.3893582e-05
2.1596401e-05
-7.6072376e-05
2.2036101e-05
-9.0371934e-05
2.2190569e-05
-0.00010703752
2.1990272e-05
-0.00012622282
2.1245152e-05
-0.00014785102
2.0598827e-05
-0.00017184994
1.9273827e-05
-0.0001990181
1.3975874e-05
-0.00022835955
5.270593e-06
-0.00025670909
-6.4819444e-06
-0.00028335269
-2.5571004e-05
-0.00030580216
-5.3836397e-05
-0.00031950511
-9.8846224e-05
-0.00031483709
-0.00015501272
-0.000284024
-0.00021459747
-0.00023829263
-0.00028341892
-0.00018137118
-0.00036249683
-0.00010055274
-0.00045548943
1.3585667e-05
-0.00055833138
0.000161729
-0.00067609936
0.00034624187
-0.00080097063
0.00056010434
-0.00093662497
0.00079587122
-0.0010986406
0.0010660893
-0.0012822937
0.0013795993
-0.0014594563
0.0017624146
-0.0016331173
0.002225416
-0.0017724057
0.0026763606
-0.0018732115
0.0030444228
-0.0019325371
0.0033449622
-0.0018135536
0.0035156823
-0.0016846797
0.0035557603
-0.0013590897
0.0033423207
0.0016068905
2.1272865e-05
-3.6163473e-06
2.1384121e-05
-4.350276e-06
2.1523718e-05
-5.2131407e-06
2.169908e-05
-6.2474878e-06
2.1903843e-05
-7.4872417e-06
2.2145855e-05
-8.9729954e-06
2.2423799e-05
-1.0753581e-05
2.2743805e-05
-1.2887214e-05
2.3112719e-05
-1.5443616e-05
2.3531014e-05
-1.8505794e-05
2.401696e-05
-2.2172704e-05
2.4563938e-05
-2.656184e-05
2.5192237e-05
-3.1811446e-05
2.5891871e-05
-3.8084309e-05
2.6645542e-05
-4.5566229e-05
2.7443735e-05
-5.445829e-05
2.8265609e-05
-6.4980802e-05
2.9064699e-05
-7.7387258e-05
2.9745544e-05
-9.1960506e-05
3.0183516e-05
-0.00010895351
3.0253155e-05
-0.00012852355
2.9485664e-05
-0.00015063269
2.5564312e-05
-0.00017484758
2.4119285e-05
-0.00020175934
2.2996003e-05
-0.00023139856
1.5552173e-05
-0.00026069809
4.1514241e-06
-0.00028749624
-1.4905122e-05
-0.00030880888
-4.2725138e-05
-0.0003205607
-8.648679e-05
-0.0003135164
-0.00014125039
-0.00027964379
-0.00020020755
-0.00022897742
-0.00026843622
-0.00016473119
-0.0003467819
-7.5057101e-05
-0.00043904745
4.9486431e-05
-0.000541605
0.00021042991
-0.00065941274
0.00041054444
-0.0007845032
0.00064252928
-0.00092049259
0.00089843481
-0.0010827093
0.001191886
-0.0012682508
0.0015338386
-0.0014472134
0.0019452712
-0.0016232448
0.0024321527
-0.0017646662
0.002902424
-0.0018687928
0.0032811602
-0.0019325897
0.0035833008
-0.0018193613
0.0037405696
-0.0016950172
0.0037503114
-0.0013680473
0.0034873022
0.0016599677
2.7337545e-05
-3.68083e-06
2.745396e-05
-4.4272744e-06
2.7596845e-05
-5.304793e-06
2.7773756e-05
-6.356524e-06
2.7979223e-05
-7.6170431e-06
2.8222916e-05
-9.128075e-06
2.8504737e-05
-1.0939231e-05
2.8832617e-05
-1.3110203e-05
2.9214906e-05
-1.571222e-05
2.9653266e-05
-1.8830289e-05
3.016975e-05
-2.256531e-05
3.0759294e-05
-2.7037952e-05
3.145244e-05
-3.2389635e-05
3.2239715e-05
-3.8787317e-05
3.3111214e-05
-4.6421996e-05
3.4047442e-05
-5.5499286e-05
3.5024268e-05
-6.6241881e-05
3.6012628e-05
-7.8911321e-05
3.6921692e-05
-9.3802004e-05
3.7636287e-05
-0.00011117423
3.8005223e-05
-0.00013119467
3.7507116e-05
-0.00015384634
3.3842415e-05
-0.00017881211
3.2356092e-05
-0.00020632003
3.1649391e-05
-0.00023605048
2.5206901e-05
-0.00026563753
1.411968e-05
-0.00029252864
-4.8830415e-06
-0.00031277104
-3.223119e-05
-0.00032270543
-7.4786324e-05
-0.00031346198
-0.00012819911
-0.00027671869
-0.00018648804
-0.00022134065
-0.00025410021
-0.00015000589
-0.00033170438
-5.1691729e-05
-0.00042324505
8.3057823e-05
-0.00052547207
0.00025660337
-0.00064327574
0.00047216196
-0.00076856519
0.00072219429
-0.00090483175
0.00099820026
-0.0010672175
0.0013148122
-0.0012546473
0.0016853555
-0.0014353206
0.0021258743
-0.0016136814
0.0026371975
-0.0017571776
0.0031273753
-0.0018644773
0.0035174518
-0.001932215
0.0038221781
-0.0018249175
0.003967463
-0.0017047822
0.0039479982
-0.0013762075
0.0036358987
0.0017157367
3.2961529e-05
-3.7551233e-06
3.30449e-05
-4.5163982e-06
3.3138543e-05
-5.4111567e-06
3.3261927e-05
-6.4832336e-06
3.3417243e-05
-7.7679023e-06
3.3622391e-05
-9.307563e-06
3.3880509e-05
-1.11532e-05
3.4204571e-05
-1.3365751e-05
3.4602926e-05
-1.6018177e-05
3.5081727e-05
-1.91979e-05
3.566153e-05
-2.3008649e-05
3.6339072e-05
-2.7574761e-05
3.7144409e-05
-3.3042204e-05
3.806475e-05
-3.9583087e-05
3.907439e-05
-4.7391433e-05
4.0137643e-05
-5.6674202e-05
4.1246841e-05
-6.7660252e-05
4.2416752e-05
-8.0623635e-05
4.3576706e-05
-9.5875532e-05
4.45863e-05
-0.00011368575
4.5282117e-05
-0.00013422141
4.5191127e-05
-0.00015747765
4.3067723e-05
-0.00018320551
4.173247e-05
-0.00021137296
4.007328e-05
-0.00024142637
3.4268134e-05
-0.00027141475
2.3438292e-05
-0.00029836311
4.5197206e-06
-0.0003176103
-2.2334211e-05
-0.00032587834
-6.3728719e-05
-0.00031460094
-0.00011583943
-0.0002751378
-0.00017343685
-0.00021524298
-0.00024042098
-0.00013706109
-0.00031728221
-3.0328411e-05
-0.00040810927
0.00011443644
-0.00050995566
0.00030039283
-0.00062770192
0.00053121361
-0.00075316384
0.00079919831
-0.00088963931
0.001095221
-0.0010521568
0.0014348477
-0.001241482
0.001834065
-0.001423769
0.0023040667
-0.001604403
0.0028403767
-0.0017499004
0.0033509881
-0.0018602031
0.0037529764
-0.0019314673
0.004061218
-0.0018302216
0.0041960996
-0.0017139342
0.0041488848
-0.0013835136
0.0037882151
0.0017741462
3.8116953e-05
-3.8378366e-06
3.8110563e-05
-4.6135086e-06
3.8118027e-05
-5.5252457e-06
3.8177105e-05
-6.6179503e-06
3.8295475e-05
-7.9281397e-06
3.8485541e-05
-9.4995943e-06
3.8751698e-05
-1.1384492e-05
3.9103617e-05
-1.3645305e-05
3.9547601e-05
-1.6357161e-05
4.0091238e-05
-1.9609372e-05
4.0748817e-05
-2.3508732e-05
4.1522416e-05
-2.8182495e-05
4.2430067e-05
-3.3780572e-05
4.345032e-05
-4.0477342e-05
4.4537681e-05
-4.8469563e-05
4.5664616e-05
-5.79686e-05
4.6882415e-05
-6.9215737e-05
4.8247694e-05
-8.2507372e-05
4.969967e-05
-9.8169269e-05
5.1049067e-05
-0.00011647332
5.2095124e-05
-0.00013758592
5.2437792e-05
-0.00016150577
5.1339439e-05
-0.00018802844
5.0193275e-05
-0.00021691983
4.8114532e-05
-0.00024745793
4.2756546e-05
-0.0002779454
3.2134321e-05
-0.00030495953
1.3338819e-05
-0.00032327709
-1.3008186e-05
-0.00032999642
-5.3293243e-05
-0.00031682027
-0.00010416164
-0.00027477818
-0.00016105953
-0.00021053595
-0.00022741745
-0.00012569015
-0.00030352372
-1.0728576e-05
-0.00039363089
0.00014384273
-0.00049506133
0.00034201605
-0.00061271092
0.00058796379
-0.00073830718
0.00087381383
-0.00087441866
0.0011889815
-0.0010368239
0.001550243
-0.001228732
0.0019789375
-0.0014125332
0.0024800875
-0.0015953699
0.0030418356
-0.0017427797
0.0035733513
-0.0018559042
0.0039877899
-0.0019303937
0.0043004132
-0.0018352599
0.0044263049
-0.001722444
0.0043525119
-0.0013899544
0.0039436062
0.0018347843
4.3007117e-05
-3.9318056e-06
4.3026058e-05
-4.7290632e-06
4.3064676e-05
-5.6667828e-06
4.3151356e-05
-6.7904834e-06
4.3294155e-05
-8.1371761e-06
4.3497466e-05
-9.750935e-06
4.377178e-05
-1.1684962e-05
4.4123967e-05
-1.4003275e-05
4.4567471e-05
-1.6781943e-05
4.5111274e-05
-2.0113296e-05
4.5771539e-05
-2.4106298e-05
4.6555056e-05
-2.8892113e-05
4.7468443e-05
-3.4623717e-05
4.8479255e-05
-4.1478835e-05
4.9552711e-05
-4.9658638e-05
5.0698349e-05
-5.9385763e-05
5.2009843e-05
-7.0919578e-05
5.3594597e-05
-8.4576416e-05
5.5362181e-05
-0.00010069384
5.7063481e-05
-0.00011953968
5.8461878e-05
-0.00014127592
5.9223629e-05
-0.00016591316
5.8860988e-05
-0.00019326879
5.793577e-05
-0.0002229523
5.5738054e-05
-0.00025412429
5.0722238e-05
-0.00028519455
4.0268707e-05
-0.00031228537
2.1632623e-05
-0.00032976079
-4.2031161e-06
-0.00033507986
-4.3440218e-05
-0.00032014851
-9.313356e-05
-0.00027564089
-0.00014931637
-0.00020722583
-0.0002150329
-0.00011596735
-0.00029036103
6.97318e-06
-0.00037972367
0.0001711103
-0.00048071646
0.00038127534
-0.0005982485
0.00064217822
-0.00072394119
0.00094579684
-0.00085863052
0.0012790162
-0.0010204405
0.0016600875
-0.0012163408
0.0021191728
-0.0014015654
0.0026534957
-0.0015865294
0.0032411438
-0.0017357587
0.0037940093
-0.0018515177
0.0042213881
-0.0019290126
0.0045392431
-0.0018400221
0.0046577432
-0.0017303034
0.0045588817
-0.0013955076
0.0041020853
0.0018975756
4.7625907e-05
-4.0335443e-06
4.775321e-05
-4.8514429e-06
4.7899283e-05
-5.8138478e-06
4.8069968e-05
-6.9676109e-06
4.8269998e-05
-8.3504402e-06
4.8506646e-05
-1.0008107e-05
4.8792203e-05
-1.1995194e-05
4.9136007e-05
-1.4377017e-05
4.9556192e-05
-1.7232312e-05
5.0065825e-05
-2.0654502e-05
5.0682645e-05
-2.4755598e-05
5.1418848e-05
-2.9668652e-05
5.2272646e-05
-3.5549169e-05
5.3226286e-05
-4.257899e-05
5.4261058e-05
-5.0966997e-05
5.5420792e-05
-6.094779e-05
5.6837777e-05
-7.2801753e-05
5.8625208e-05
-8.6863353e-05
6.0665202e-05
-0.00010346599
6.2673706e-05
-0.00012287905
6.4405047e-05
-0.00014528086
6.5563524e-05
-0.00017068789
6.5769205e-05
-0.00019892378
6.5083455e-05
-0.00022946482
6.2939545e-05
-0.00026138321
5.8202653e-05
-0.00029311224
4.7878738e-05
-0.00032030574
2.9421866e-05
-0.00033699896
4.0899226e-06
-0.00034101699
-3.4155927e-05
-0.00032444854
-8.2721053e-05
-0.00027760616
-0.00013816046
-0.0002051928
-0.00020320044
-0.00010773646
-0.00027773251
2.2963312e-05
-0.00036633337
0.00019645128
-0.00046686462
0.00041839832
-0.00058425155
0.00069408518
-0.00071004425
0.0010154403
-0.00084234805
0.0013656768
-0.0010030785
0.0017646109
-0.001204297
0.0022549783
-0.0013908404
0.0028245915
-0.0015778556
0.0034385269
-0.0017288072
0.0040131321
-0.0018470136
0.0044538907
-0.0019273376
0.0047777869
-0.0018444793
0.0048903351
-0.0017374715
0.0047675834
-0.0014001556
0.0042630816
0.0019621792
5.1807794e-05
-4.1437433e-06
5.1950353e-05
-4.9839442e-06
5.211857e-05
-5.9729417e-06
5.231773e-05
-7.158468e-06
5.2552498e-05
-8.5796329e-06
5.2830034e-05
-1.0283558e-05
5.3158033e-05
-1.232625e-05
5.3546137e-05
-1.4775335e-05
5.4005484e-05
-1.7711664e-05
5.4548375e-05
-2.1231339e-05
5.5186613e-05
-2.5449759e-05
5.5928891e-05
-3.0502093e-05
5.6775531e-05
-3.654822e-05
5.7719862e-05
-4.3774564e-05
5.8764958e-05
-5.2396825e-05
5.9976308e-05
-6.2665178e-05
6.1504012e-05
-7.4876327e-05
6.3440303e-05
-8.936859e-05
6.5666551e-05
-0.00010647772
6.7924765e-05
-0.00012648889
6.9964709e-05
-0.00014959749
7.1493086e-05
-0.00017582483
7.2167111e-05
-0.00020499027
7.1733274e-05
-0.00023646487
6.9734055e-05
-0.00026924303
6.5226656e-05
-0.0003016897
5.4985642e-05
-0.00032899061
3.6698409e-05
-0.00034494655
1.1855145e-05
-0.00034775867
-2.5431729e-05
-0.00032966708
-7.2894278e-05
-0.00028060607
-0.00012757005
-0.00020435743
-0.00019190998
-0.00010092345
-0.00026563652
3.7313733e-05
-0.00035346897
0.00021993999
-0.00045351125
0.00045345686
-0.00057072047
0.0007437364
-0.00069666484
0.0010828327
-0.00082976805
0.0014569014
-0.00099069393
0.001884257
-0.001192673
0.0023994739
-0.0013803696
0.0029933195
-0.0015693518
0.0036338211
-0.0017219174
0.0042305123
-0.0018423689
0.0046850139
-0.0019253638
0.0050156549
-0.001848584
0.0051237616
-0.0017438969
0.0049785334
-0.0014038509
0.0044264949
0.0020284787
5.5666767e-05
-4.2622854e-06
5.5819391e-05
-5.1265462e-06
5.5999931e-05
-6.143991e-06
5.6214439e-05
-7.3637911e-06
5.6467867e-05
-8.8261218e-06
5.6767954e-05
-1.0579523e-05
5.7122084e-05
-1.26816e-05
5.7540718e-05
-1.5202433e-05
5.8033602e-05
-1.8224576e-05
5.8612596e-05
-2.1847971e-05
5.9288472e-05
-2.619077e-05
6.0064952e-05
-3.1392117e-05
6.094984e-05
-3.7616481e-05
6.1941482e-05
-4.5057597e-05
6.3055444e-05
-5.393989e-05
6.4367721e-05
-6.4526243e-05
6.6002637e-05
-7.7123664e-05
6.8040818e-05
-9.207438e-05
7.039885e-05
-0.00010971967
7.2862185e-05
-0.00013036284
7.5182724e-05
-0.00015421872
7.7047868e-05
-0.00018131237
7.8124395e-05
-0.0002114586
7.7954957e-05
-0.00024394231
7.6152717e-05
-0.00027767222
7.1824067e-05
-0.00031088691
6.1606881e-05
-0.0003382937
4.3470965e-05
-0.00035352622
1.9116626e-05
-0.00035520179
-1.7229787e-05
-0.00033569063
-6.3619617e-05
-0.00028452401
-0.00011752146
-0.00020458409
-0.00018115048
-9.534978e-05
-0.00025406654
5.0237798e-05
-0.00034112599
0.0002418072
-0.00044065622
0.00048669694
-0.00055765326
0.00079139349
-0.00068376091
0.0011479845
-0.00082543742
0.0015549156
-0.00099014361
0.0020265087
-0.0011815516
0.0025587544
-0.0013701414
0.0031605171
-0.001560999
0.0038272391
-0.0017150643
0.004446296
-0.0018375499
0.0049148302
-0.0019230735
0.0052528712
-0.0018522775
0.0053577883
-0.0017495378
0.005191105
-0.0014065774
0.0045916017
0.0020960626
5.9218825e-05
-4.3889919e-06
5.9380837e-05
-5.2789268e-06
5.9572411e-05
-6.3267567e-06
5.9799871e-05
-7.5829298e-06
6.0068351e-05
-9.0892656e-06
6.0385869e-05
-1.0895111e-05
6.0760019e-05
-1.3060671e-05
6.1201122e-05
-1.5657418e-05
6.1719621e-05
-1.8771122e-05
6.2326864e-05
-2.2504225e-05
6.3035993e-05
-2.6978583e-05
6.3851537e-05
-3.2338088e-05
6.4788568e-05
-3.8752901e-05
6.5859352e-05
-4.6424358e-05
6.7084404e-05
-5.5587617e-05
6.8522443e-05
-6.651693e-05
7.0275947e-05
-7.9529725e-05
7.2408844e-05
-9.4969568e-05
7.487461e-05
-0.00011318501
7.7514932e-05
-0.00013449809
8.008027e-05
-0.00015913881
8.224527e-05
-0.00018714116
8.3675719e-05
-0.00021831734
8.3776301e-05
-0.0002518822
8.2214102e-05
-0.00028667733
7.8024054e-05
-0.00032071333
6.7774354e-05
-0.0003482132
4.9785478e-05
-0.00036276411
2.5933512e-05
-0.00036340725
-9.4944815e-06
-0.00034259365
-5.4844273e-05
-0.00028942667
-0.00010796453
-0.0002059514
-0.00017087319
-9.1134872e-05
-0.00024297467
6.1578205e-05
-0.00032925651
0.00026186881
-0.00042825171
0.00051790544
-0.00054500212
0.0008368005
-0.0006711832
0.0012105072
-0.00082207416
0.0016437652
-0.00099122116
0.0021501493
-0.0011708371
0.0027058037
-0.0013601086
0.003325529
-0.0015527512
0.004018309
-0.0017081955
0.00466001
-0.0018325064
0.0051428462
-0.0019204394
0.005488879
-0.0018555191
0.0055920328
-0.0017543708
0.0054052231
-0.0014083187
0.0047582897
0.0021647977
6.2482626e-05
-4.5236854e-06
6.2653561e-05
-5.4407226e-06
6.2855486e-05
-6.5209319e-06
6.3095237e-05
-7.8159015e-06
6.3377362e-05
-9.368808e-06
6.3710919e-05
-1.1230639e-05
6.4102764e-05
-1.3463499e-05
6.456384e-05
-1.6140815e-05
6.5104934e-05
-1.935139e-05
6.5738968e-05
-2.3200889e-05
6.648102e-05
-2.7814798e-05
6.7339865e-05
-3.3342108e-05
6.8339567e-05
-3.9960598e-05
6.9502657e-05
-4.7878898e-05
7.0851257e-05
-5.7342838e-05
7.2428897e-05
-6.8638794e-05
7.4306205e-05
-8.2090886e-05
7.6535835e-05
-9.8048237e-05
7.9106525e-05
-0.00011686825
8.1901085e-05
-0.00013888645
8.4671742e-05
-0.00016434512
8.7100323e-05
-0.00019329458
8.8841255e-05
-0.00022554338
8.9211404e-05
-0.00026025411
8.7933543e-05
-0.00029621601
8.384872e-05
-0.00033112581
7.3515544e-05
-0.00035869995
5.568531e-05
-0.00037258441
3.2346043e-05
-0.00037227124
-2.1904631e-06
-0.00035025193
-4.6530426e-05
-0.00029518988
-9.8862811e-05
-0.0002083193
-0.00016104227
-8.8095858e-05
-0.00023232586
7.1554542e-05
-0.00031782515
0.00028036658
-0.00041626411
0.00054734412
-0.00053273312
0.00088024439
-0.00065889224
0.001270913
-0.00081193173
0.0017228305
-0.00098238563
0.0022512536
-0.0011603101
0.0028370635
-0.0013502376
0.0034880494
-0.0015445819
0.0042073052
-0.0017012909
0.004871876
-0.0018272145
0.0053692028
-0.0019174246
0.0057237665
-0.0018582497
0.0058263446
-0.0017583675
0.0056203586
-0.001409069
0.0049259774
0.0022343808
6.5472058e-05
-4.6660168e-06
6.5651658e-05
-5.6117122e-06
6.5863421e-05
-6.7260339e-06
6.6114863e-05
-8.0621244e-06
6.6410207e-05
-9.6640641e-06
6.6759241e-05
-1.1585048e-05
6.7168629e-05
-1.3888807e-05
6.7650156e-05
-1.6651309e-05
6.821674e-05
-1.9964478e-05
6.8883027e-05
-2.3937521e-05
6.9666975e-05
-2.8700019e-05
7.0582092e-05
-3.4407393e-05
7.1658623e-05
-4.1243991e-05
7.2921806e-05
-4.9427182e-05
7.4398556e-05
-5.921314e-05
7.6114416e-05
-7.0898762e-05
7.8102964e-05
-8.4812573e-05
8.0425163e-05
-0.00010131189
8.3099343e-05
-0.00012076696
8.6024313e-05
-0.00014352232
8.8967981e-05
-0.00016983238
9.1631419e-05
-0.00019977039
9.3645174e-05
-0.00023313372
9.4291424e-05
-0.00026905763
9.3315634e-05
-0.00030627829
8.9288754e-05
-0.00034207646
7.8844782e-05
-0.00036970536
6.1188068e-05
-0.00038296865
3.8360106e-05
-0.00038177568
4.684975e-06
-0.0003586299
-3.8675685e-05
-0.00030175199
-9.0217947e-05
-0.00021161434
-0.00015166319
-8.617174e-05
-0.00022212989
8.0221916e-05
-0.00030684432
0.00029736181
-0.00040470808
0.00057507527
-0.00052086218
0.00092177145
-0.00064694424
0.0013292276
-0.00079881011
0.0018000807
-0.00096894872
0.0023509958
-0.0011499021
0.002966304
-0.0013405352
0.0036479563
-0.0015364949
0.004394081
-0.0016943485
0.0050817396
-0.0018216613
0.0055936938
-0.0019140163
0.005957182
-0.0018604203
0.0060604099
-0.0017614713
0.0058364032
-0.0014087989
0.0050944799
0.0023046428
6.8200087e-05
-4.8155856e-06
6.8388315e-05
-5.7918296e-06
6.8610159e-05
-6.9421425e-06
6.8873156e-05
-8.3212381e-06
6.9182361e-05
-9.9751556e-06
6.9547942e-05
-1.1958614e-05
6.9977655e-05
-1.4337123e-05
7.0485033e-05