/*--------------------------------*- C++ -*----------------------------------*\
  =========                 |
  \\      /  F ield         | OpenFOAM: The Open Source CFD Toolbox
   \\    /   O peration     | Website:  https://openfoam.org
    \\  /    A nd           | Version:  8
     \\/     M anipulation  |
\*---------------------------------------------------------------------------*/
FoamFile
{
    version     2.0;
    format      ascii;
    class       volScalarField;
    location    "0.0900078";
    object      nut;
}
// * * * * * * * * * * * * * * * * * * * * * * * * * * * * * * * * * * * * * //

dimensions      [0 2 -1 0 0 0 0];

internalField   nonuniform List<scalar> 
20000
(
0.0011706228
0.0028056549
0.0036325749
0.00373007
0.0030058807
0.0010362341
6.0376031e-06
5.292016e-09
4.5422954e-09
4.4946001e-09
4.3412653e-09
4.3655616e-09
4.2822966e-09
4.3172545e-09
4.3043417e-09
4.3416151e-09
4.3574345e-09
4.4002233e-09
4.4394105e-09
4.4993279e-09
4.5654768e-09
4.651844e-09
4.7517654e-09
4.8735044e-09
5.0157495e-09
5.1855447e-09
5.3905043e-09
5.6123914e-09
5.8469401e-09
6.0816537e-09
6.3078585e-09
6.5158493e-09
6.6990242e-09
6.8552156e-09
6.9842544e-09
7.0882761e-09
7.1695846e-09
7.2333628e-09
7.2828035e-09
7.3212885e-09
7.3497706e-09
7.3740248e-09
7.3970077e-09
7.4193782e-09
7.4328819e-09
7.4381793e-09
7.438834e-09
7.4089444e-09
7.3880026e-09
7.3837831e-09
0.0011711423
0.0027667019
0.0035346889
0.0035664479
0.0027747221
0.00083113374
1.3322656e-06
5.0560563e-09
4.4578269e-09
4.4159645e-09
4.2676248e-09
4.2936519e-09
4.2123863e-09
4.2481335e-09
4.2364916e-09
4.2746397e-09
4.2918757e-09
4.3361863e-09
4.3775073e-09
4.4397616e-09
4.5087155e-09
4.5981534e-09
4.7022789e-09
4.8298754e-09
4.9809602e-09
5.1636617e-09
5.3791599e-09
5.6109162e-09
5.8488255e-09
6.0886209e-09
6.3171567e-09
6.5254972e-09
6.7078995e-09
6.8627262e-09
6.9902033e-09
7.0928931e-09
7.1730927e-09
7.2361063e-09
7.2850683e-09
7.3231244e-09
7.3513072e-09
7.3754753e-09
7.3994504e-09
7.4212427e-09
7.4339776e-09
7.4390169e-09
7.4379419e-09
7.4079201e-09
7.3875938e-09
7.3840761e-09
0.0011661688
0.0027201825
0.0034379354
0.0034161139
0.0025435163
0.00065552351
3.1960847e-07
4.8980322e-09
4.3777991e-09
4.3410831e-09
4.1981235e-09
4.2257017e-09
4.1465583e-09
4.1828635e-09
4.1726638e-09
4.2116474e-09
4.2304316e-09
4.2763233e-09
4.3196388e-09
4.3839967e-09
4.4555509e-09
4.5482583e-09
4.657471e-09
4.7928183e-09
4.9560073e-09
5.1550316e-09
5.3778576e-09
5.6118827e-09
5.8566848e-09
6.0997722e-09
6.3297433e-09
6.5378492e-09
6.7187876e-09
6.8716538e-09
6.9971062e-09
7.0980843e-09
7.1769032e-09
7.2390241e-09
7.2874786e-09
7.3251163e-09
7.3530406e-09
7.3772766e-09
7.4024504e-09
7.4241071e-09
7.4360612e-09
7.440257e-09
7.436162e-09
7.4048355e-09
7.3878261e-09
7.3838762e-09
0.001161154
0.0026731508
0.0033399822
0.0032622659
0.0023090172
0.00050942383
9.1532712e-08
4.7767928e-09
4.3028646e-09
4.2708777e-09
4.1329283e-09
4.1620538e-09
4.0850267e-09
4.1220512e-09
4.1134203e-09
4.1534535e-09
4.1739681e-09
4.2215141e-09
4.2669003e-09
4.3334133e-09
4.4079368e-09
4.5050373e-09
4.6215266e-09
4.7678272e-09
4.946396e-09
5.1522905e-09
5.3777577e-09
5.6206513e-09
5.8708231e-09
6.1171455e-09
6.3477593e-09
6.5546258e-09
6.7332593e-09
6.8834275e-09
7.0062415e-09
7.1049908e-09
7.1820346e-09
7.2429269e-09
7.2905744e-09
7.3275511e-09
7.3550355e-09
7.3793041e-09
7.4053937e-09
7.426244e-09
7.4376215e-09
7.4416673e-09
7.4335977e-09
7.4038284e-09
7.3877554e-09
7.383831e-09
0.0011554304
0.0026252577
0.0032424182
0.0031151711
0.0020749726
0.00038268137
3.2677872e-08
4.6767759e-09
4.233903e-09
4.2064575e-09
4.0733679e-09
4.1041055e-09
4.0291853e-09
4.0670263e-09
4.0600757e-09
4.1012376e-09
4.1235057e-09
4.1727318e-09
4.2202502e-09
4.2892654e-09
4.367674e-09
4.4711146e-09
4.5980131e-09
4.757729e-09
4.9429958e-09
5.1526226e-09
5.3863405e-09
5.6360721e-09
5.891433e-09
6.1398119e-09
6.3700812e-09
6.5748421e-09
6.7503852e-09
6.8972056e-09
7.0168668e-09
7.1129717e-09
7.1879251e-09
7.2473638e-09
7.2940438e-09
7.3302364e-09
7.3572486e-09
7.3816526e-09
7.4083809e-09
7.4284443e-09
7.439251e-09
7.4430259e-09
7.4308319e-09
7.4024492e-09
7.3875944e-09
7.3837886e-09
0.0011488408
0.0025770002
0.0031409543
0.0029639882
0.0018427296
0.000273384
1.522349e-08
4.5909771e-09
4.1717511e-09
4.1485595e-09
4.020079e-09
4.0524663e-09
3.9796524e-09
4.018439e-09
4.0132304e-09
4.0555323e-09
4.0795235e-09
4.1304845e-09
4.1806451e-09
4.2532171e-09
4.3374186e-09
4.4506315e-09
4.5886193e-09
4.754213e-09
4.9431468e-09
5.160833e-09
5.4022492e-09
5.6590919e-09
5.9185121e-09
6.1680802e-09
6.3970041e-09
6.5987111e-09
6.7703642e-09
6.9131814e-09
7.0291663e-09
7.1222039e-09
7.1947426e-09
7.2524777e-09
7.2979776e-09
7.3332206e-09
7.3597246e-09
7.3843801e-09
7.4113665e-09
7.430415e-09
7.4405937e-09
7.4441926e-09
7.4278127e-09
7.4013263e-09
7.3873004e-09
7.3837866e-09
0.0011421654
0.0025304018
0.003044641
0.0028147985
0.0016174929
0.00017835273
9.1266211e-09
4.5165611e-09
4.1168168e-09
4.0976558e-09
3.9735874e-09
4.0077122e-09
3.9369908e-09
3.9767702e-09
3.9732692e-09
4.0166811e-09
4.0424739e-09
4.0955265e-09
4.1493654e-09
4.227304e-09
4.3208761e-09
4.4424391e-09
4.5854736e-09
4.7542433e-09
4.9508016e-09
5.1770725e-09
5.4265917e-09
5.6893677e-09
5.9519554e-09
6.2015822e-09
6.4281136e-09
6.6258514e-09
6.7928495e-09
6.9310575e-09
7.0428928e-09
7.132488e-09
7.2023289e-09
7.2581454e-09
7.3022864e-09
7.3364475e-09
7.3624613e-09
7.3875675e-09
7.414415e-09
7.4322842e-09
7.4416858e-09
7.4448895e-09
7.4249715e-09
7.4001259e-09
7.3869562e-09
7.3837839e-09
0.0011351824
0.0024847965
0.0029528108
0.0026688543
0.0014014826
9.7907933e-05
6.6561671e-09
4.451022e-09
4.0690035e-09
4.0538066e-09
3.9340466e-09
3.9699981e-09
3.9012705e-09
3.9420054e-09
3.9401976e-09
3.9848971e-09
4.0131003e-09
4.069185e-09
4.1283795e-09
4.2144727e-09
4.3143285e-09
4.4399555e-09
4.5855677e-09
4.7614957e-09
4.9668004e-09
5.2018935e-09
5.4588913e-09
5.7269086e-09
5.9915465e-09
6.2401367e-09
6.4632247e-09
6.656085e-09
6.8176934e-09
6.9507218e-09
7.0579664e-09
7.1437726e-09
7.210655e-09
7.2643506e-09
7.3069494e-09
7.3399009e-09
7.3654642e-09
7.3912685e-09
7.4175129e-09
7.4340186e-09
7.4425352e-09
7.4451916e-09
7.4223146e-09
7.3990064e-09
7.3865572e-09
7.3837901e-09
0.0011277983
0.0024395708
0.0028616795
0.0025234296
0.001197712
4.131014e-05
5.5409971e-09
4.3946586e-09
4.0285396e-09
4.017145e-09
3.9014481e-09
3.9391335e-09
3.8722242e-09
3.9139708e-09
3.9142184e-09
3.9608135e-09
3.9926573e-09
4.0543694e-09
4.1196431e-09
4.209406e-09
4.3127055e-09
4.4402007e-09
4.5929571e-09
4.7771148e-09
4.9914669e-09
5.2351567e-09
5.4991808e-09
5.7714253e-09
6.0369963e-09
6.2833853e-09
6.5019838e-09
6.6890942e-09
6.8446247e-09
6.9719556e-09
7.0742161e-09
7.1559287e-09
7.2196269e-09
7.271028e-09
7.3119154e-09
7.3435453e-09
7.3687097e-09
7.3954478e-09
7.4206583e-09
7.4356984e-09
7.4432287e-09
7.4452655e-09
7.419862e-09
7.3979184e-09
7.386181e-09
7.3837983e-09
0.0011198842
0.0023945642
0.0027715358
0.0023766781
0.0010083855
1.326724e-05
4.9986379e-09
4.3493059e-09
3.9951781e-09
3.9872726e-09
3.8752459e-09
3.9145574e-09
3.8496318e-09
3.8929409e-09
3.8962123e-09
3.9466157e-09
3.9832109e-09
4.0483183e-09
4.1163308e-09
4.2082776e-09
4.3134672e-09
4.4480382e-09
4.6083635e-09
4.8012225e-09
5.0246882e-09
5.2767372e-09
5.5470974e-09
5.8226041e-09
6.0879296e-09
6.3309645e-09
6.5440529e-09
6.7245839e-09
6.8734017e-09
6.9945687e-09
7.0914975e-09
7.1688506e-09
7.2291696e-09
7.2781299e-09
7.3171518e-09
7.3473588e-09
7.3721539e-09
7.3998587e-09
7.4238798e-09
7.4375399e-09
7.443859e-09
7.4452164e-09
7.4176144e-09
7.3969127e-09
7.3858389e-09
7.3837814e-09
0.0011119197
0.002349989
0.002682241
0.0022294203
0.0008356622
3.607385e-06
4.7199193e-09
4.3116287e-09
3.9685739e-09
3.963744e-09
3.8550386e-09
3.8963098e-09
3.8348983e-09
3.8812065e-09
3.8879645e-09
3.9405905e-09
3.9794215e-09
4.0465238e-09
4.1159803e-09
4.2106513e-09
4.322444e-09
4.463422e-09
4.6320325e-09
4.8337976e-09
5.0663599e-09
5.3264035e-09
5.6023778e-09
5.8800597e-09
6.1439355e-09
6.3824545e-09
6.5890438e-09
6.7622175e-09
6.9037476e-09
7.0183427e-09
7.1096432e-09
7.1824143e-09
7.2391924e-09
7.2855948e-09
7.3226263e-09
7.3513271e-09
7.3757567e-09
7.4042081e-09
7.4270992e-09
7.4396261e-09
7.444583e-09
7.4446384e-09
7.415569e-09
7.3959854e-09
7.3855202e-09
7.3837476e-09
0.0011037484
0.0023061824
0.0025935742
0.0020817058
0.00068060205
9.4930506e-07
4.5672014e-09
4.2809438e-09
3.9480527e-09
3.9473764e-09
3.8427155e-09
3.8870532e-09
3.8284249e-09
3.8760135e-09
3.8845844e-09
3.9385044e-09
3.9785739e-09
4.0466604e-09
4.1203364e-09
4.2204227e-09
4.3381827e-09
4.4866763e-09
4.6637462e-09
4.8746049e-09
5.116202e-09
5.3838301e-09
5.664596e-09
5.9433403e-09
6.204541e-09
6.4374085e-09
6.6365584e-09
6.8016596e-09
6.9353921e-09
7.043067e-09
7.1284928e-09
7.196501e-09
7.2496074e-09
7.2933561e-09
7.3282938e-09
7.3554528e-09
7.3794935e-09
7.4083485e-09
7.4300999e-09
7.4416758e-09
7.4458621e-09
7.4429474e-09
7.4136891e-09
7.3951223e-09
7.385221e-09
7.3837084e-09
0.0010957173
0.0022638451
0.0025061836
0.0019292905
0.00054384456
2.70377e-07
4.4797954e-09
4.257679e-09
3.9354846e-09
3.9373526e-09
3.8386034e-09
3.8791913e-09
3.8258488e-09
3.8739465e-09
3.883748e-09
3.9381543e-09
3.9809742e-09
4.0531032e-09
4.1313753e-09
4.2367641e-09
4.3614553e-09
4.5175265e-09
4.7033779e-09
4.9234863e-09
5.1740037e-09
5.4487189e-09
5.733364e-09
6.0119826e-09
6.2692596e-09
6.4953597e-09
6.6861816e-09
6.8425608e-09
6.9680538e-09
7.0685224e-09
7.1478791e-09
7.2109871e-09
7.2603236e-09
7.3013384e-09
7.3340551e-09
7.3597496e-09
7.3833766e-09
7.4122418e-09
7.4328423e-09
7.4436074e-09
7.4473841e-09
7.4403833e-09
7.4119329e-09
7.3942953e-09
7.3849365e-09
7.3836731e-09
0.0010879531
0.0022231837
0.0024250244
0.0017724821
0.00042843644
9.1627051e-08
4.4418368e-09
4.2423019e-09
3.931306e-09
3.9302569e-09
3.8310342e-09
3.8696475e-09
3.8249186e-09
3.8734332e-09
3.8857433e-09
3.9429811e-09
3.9894679e-09
4.0652971e-09
4.1487066e-09
4.2599753e-09
4.3916772e-09
4.5557604e-09
4.7506566e-09
4.9801482e-09
5.2394408e-09
5.5206548e-09
5.808188e-09
6.0854521e-09
6.3375634e-09
6.5558253e-09
6.7374973e-09
6.8845793e-09
7.0014617e-09
7.0945005e-09
7.1676441e-09
7.2257541e-09
7.2712541e-09
7.3094911e-09
7.3400391e-09
7.3642113e-09
7.3874586e-09
7.4159366e-09
7.4353217e-09
7.4453189e-09
7.4487758e-09
7.4374901e-09
7.4101522e-09
7.3934795e-09
7.3846618e-09
7.3836451e-09
0.0010802777
0.0021829147
0.0023480904
0.0016104715
0.00032773253
3.7763015e-08
4.4234623e-09
4.2327717e-09
3.9242723e-09
3.9232954e-09
3.8224842e-09
3.8619105e-09
3.8269832e-09
3.8779274e-09
3.8933605e-09
3.9531823e-09
4.0035076e-09
4.0836045e-09
4.1723566e-09
4.2896804e-09
4.4288181e-09
4.6011995e-09
4.8054416e-09
5.0444438e-09
5.3122798e-09
5.5992977e-09
5.8886232e-09
6.1632349e-09
6.4089342e-09
6.6183246e-09
6.7900885e-09
6.927372e-09
7.0353451e-09
7.1207925e-09
7.1876299e-09
7.2406836e-09
7.2823113e-09
7.3177352e-09
7.3460846e-09
7.3688551e-09
7.3918207e-09
7.4195029e-09
7.4375431e-09
7.4467249e-09
7.4498305e-09
7.4342477e-09
7.4083581e-09
7.3926696e-09
7.3843952e-09
7.3836209e-09
0.0010724825
0.0021423834
0.0022692668
0.0014446647
0.00023803846
1.9197317e-08
4.4077299e-09
4.2269705e-09
3.9206821e-09
3.9189361e-09
3.8211463e-09
3.8605301e-09
3.8341048e-09
3.8874949e-09
3.9061169e-09
3.9688398e-09
4.023184e-09
4.1075946e-09
4.2019653e-09
4.3256877e-09
4.4725462e-09
4.6536118e-09
4.8674931e-09
5.1161051e-09
5.3921702e-09
5.684197e-09
5.9741294e-09
6.2447633e-09
6.4828252e-09
6.6823707e-09
6.8435457e-09
6.9706107e-09
7.0694507e-09
7.147205e-09
7.2076906e-09
7.2556655e-09
7.2934125e-09
7.3260167e-09
7.3521878e-09
7.3736739e-09
7.3965407e-09
7.4229934e-09
7.4395483e-09
7.4478052e-09
7.4502406e-09
7.4310746e-09
7.4065945e-09
7.3918758e-09
7.3841351e-09
7.3835993e-09
0.0010646715
0.0021021535
0.0021920571
0.0012810297
0.0001590338
1.1952941e-08
4.4077382e-09
4.2232567e-09
3.928311e-09
3.9245398e-09
3.8295733e-09
3.8699263e-09
3.8465544e-09
3.9020911e-09
3.9239518e-09
3.9895282e-09
4.0480824e-09
4.1370919e-09
4.237365e-09
4.3677952e-09
4.5227733e-09
4.7129145e-09
4.9367457e-09
5.1950173e-09
5.4788806e-09
5.7749831e-09
6.0642214e-09
6.3295026e-09
6.5587093e-09
6.7474882e-09
6.8974681e-09
7.0139754e-09
7.1035322e-09
7.1735496e-09
7.227683e-09
7.2705932e-09
7.3044775e-09
7.3342709e-09
7.3582999e-09
7.3786439e-09
7.4016206e-09
7.4264466e-09
7.4414164e-09
7.4486526e-09
7.45037e-09
7.4280093e-09
7.4048909e-09
7.3911099e-09
7.3838801e-09
7.3835756e-09
0.0010568739
0.002061792
0.002114679
0.0011290311
9.2820606e-05
8.7519907e-09
4.4030477e-09
4.2194254e-09
3.9351308e-09
3.9316514e-09
3.8423664e-09
3.8843006e-09
3.863557e-09
3.9211203e-09
3.9463329e-09
4.0150246e-09
4.0780048e-09
4.1718248e-09
4.2783107e-09
4.4158082e-09
4.5793116e-09
4.7789477e-09
5.013031e-09
5.280927e-09
5.5720409e-09
5.8711487e-09
6.1583176e-09
6.4168549e-09
6.6360319e-09
6.8132013e-09
6.9514744e-09
7.057171e-09
7.1373649e-09
7.199656e-09
7.2474774e-09
7.2853714e-09
7.315435e-09
7.3424437e-09
7.3643836e-09
7.3837116e-09
7.406832e-09
7.4299696e-09
7.4433907e-09
7.4493853e-09
7.4503344e-09
7.4250436e-09
7.4032684e-09
7.3903804e-09
7.3836284e-09
7.3835357e-09
0.0010489597
0.0020190195
0.0020355274
0.00098710618
4.4919783e-05
7.1792682e-09
4.3969737e-09
4.2211018e-09
3.944752e-09
3.9446683e-09
3.8582232e-09
3.9021116e-09
3.884544e-09
3.944324e-09
3.9731298e-09
4.0450506e-09
4.1127184e-09
4.2116415e-09
4.3246892e-09
4.4696631e-09
4.64216e-09
4.8517469e-09
5.0963604e-09
5.3737477e-09
5.6714015e-09
5.9722815e-09
6.2559013e-09
6.5062617e-09
6.7142621e-09
6.8790567e-09
7.0052092e-09
7.0999226e-09
7.1707349e-09
7.225363e-09
7.2669499e-09
7.2999091e-09
7.3262188e-09
7.3504829e-09
7.3703964e-09
7.3887857e-09
7.4119493e-09
7.4334741e-09
7.4455432e-09
7.4502271e-09
7.4501527e-09
7.4222215e-09
7.4017468e-09
7.3896914e-09
7.3833784e-09
7.3834753e-09
0.0010408293
0.0019733035
0.0019535009
0.00085579008
1.7983264e-05
6.355129e-09
4.3927937e-09
4.2258436e-09
3.9575557e-09
3.9603704e-09
3.8776273e-09
3.9237809e-09
3.9093935e-09
3.9715372e-09
4.0040841e-09
4.0794782e-09
4.1520726e-09
4.2563856e-09
4.3763674e-09
4.5292657e-09
4.7112471e-09
4.9312445e-09
5.1866074e-09
5.4732223e-09
5.776538e-09
6.0778271e-09
6.3563416e-09
6.597097e-09
6.7928414e-09
6.9446151e-09
7.0583523e-09
7.1419887e-09
7.2034528e-09
7.2505318e-09
7.2859957e-09
7.3141248e-09
7.3367712e-09
7.3583456e-09
7.376305e-09
7.3938273e-09
7.4168058e-09
7.4367566e-09
7.4476726e-09
7.4515073e-09
7.4488309e-09
7.4195826e-09
7.4003338e-09
7.3890441e-09
7.3831286e-09
7.3833922e-09
0.0010323325
0.0019244603
0.0018674434
0.00073501517
6.2865697e-06
5.908728e-09
4.3922057e-09
4.2340912e-09
3.973675e-09
3.9797363e-09
3.9006962e-09
3.9489833e-09
3.9379812e-09
4.0025766e-09
4.0390932e-09
4.1181114e-09
4.1959444e-09
4.3059914e-09
4.4333492e-09
4.5946782e-09
4.7866991e-09
5.0175671e-09
5.2838367e-09
5.5792453e-09
5.8871544e-09
6.1873119e-09
6.4590585e-09
6.6887687e-09
6.8712525e-09
7.0094865e-09
7.1106179e-09
7.1831488e-09
7.235344e-09
7.2750379e-09
7.3045258e-09
7.3279377e-09
7.3470335e-09
7.3659939e-09
7.3820827e-09
7.3987841e-09
7.421343e-09
7.4397318e-09
7.4496164e-09
7.4530262e-09
7.4465563e-09
7.4171454e-09
7.3990141e-09
7.3884366e-09
7.3828775e-09
7.383284e-09
0.0010232053
0.0018718425
0.0017751683
0.0006246908
2.0848887e-06
5.6614155e-09
4.3954462e-09
4.2458725e-09
3.9931988e-09
4.0023428e-09
3.9270928e-09
3.9776504e-09
3.9701384e-09
4.0373109e-09
4.0779854e-09
4.1608909e-09
4.2442565e-09
4.3604192e-09
4.4956151e-09
4.6659343e-09
4.8685378e-09
5.1107255e-09
5.3879061e-09
5.6915148e-09
6.0027314e-09
6.3000773e-09
6.5633468e-09
6.7806283e-09
6.9490061e-09
7.0733329e-09
7.161743e-09
7.2232001e-09
7.2662648e-09
7.2987827e-09
7.322477e-09
7.3412768e-09
7.3569447e-09
7.3734003e-09
7.3877173e-09
7.4036595e-09
7.4256023e-09
7.4423379e-09
7.4512296e-09
7.4542439e-09
7.4434894e-09
7.414927e-09
7.3977823e-09
7.387866e-09
7.3826238e-09
7.3831483e-09
0.0010135289
0.0018154262
0.001670803
0.00052338121
6.9542143e-07
5.5191095e-09
4.4025517e-09
4.2608659e-09
4.016078e-09
4.0281575e-09
3.9566954e-09
4.0096023e-09
4.0057247e-09
4.0756234e-09
4.1206916e-09
4.2077142e-09
4.2970013e-09
4.4197173e-09
4.5633062e-09
4.7432149e-09
4.9570114e-09
5.2108956e-09
5.4988905e-09
5.8098532e-09
6.122879e-09
6.4155531e-09
6.6685742e-09
6.8721321e-09
7.025743e-09
7.1358925e-09
7.2114616e-09
7.2619317e-09
7.296095e-09
7.3216775e-09
7.3397934e-09
7.3540846e-09
7.3664373e-09
7.3805412e-09
7.393211e-09
7.4084805e-09
7.4296714e-09
7.4445824e-09
7.452485e-09
7.4549122e-09
7.4399951e-09
7.4127737e-09
7.3966283e-09
7.3873311e-09
7.382367e-09
7.3829822e-09
0.001003435
0.0017567733
0.001558743
0.00043152304
2.4926377e-07
5.4337959e-09
4.412984e-09
4.2787836e-09
4.041861e-09
4.0569111e-09
3.9893956e-09
4.0446945e-09
4.0446535e-09
4.1174321e-09
4.1671549e-09
4.2586166e-09
4.3542151e-09
4.4839679e-09
4.6365257e-09
4.8266596e-09
5.0522173e-09
5.3180953e-09
5.6165923e-09
5.9338392e-09
6.2469528e-09
6.5329859e-09
6.7740327e-09
6.9628057e-09
7.1012028e-09
7.1969199e-09
7.2594812e-09
7.2991246e-09
7.3247454e-09
7.3436456e-09
7.3564076e-09
7.3663389e-09
7.3754591e-09
7.3873944e-09
7.398576e-09
7.4133565e-09
7.4336384e-09
7.446683e-09
7.4534097e-09
7.455166e-09
7.4363147e-09
7.4107183e-09
7.3955586e-09
7.3868335e-09
7.3821064e-09
7.3827828e-09
0.00099305562
0.001696296
0.001439329
0.00035310098
1.0165397e-07
5.3822701e-09
4.4266441e-09
4.2996739e-09
4.0704558e-09
4.0885215e-09
4.0250483e-09
4.0828552e-09
4.0868717e-09
4.1627152e-09
4.2173875e-09
4.3136119e-09
4.4160018e-09
4.5533567e-09
4.7155272e-09
4.916572e-09
5.1544622e-09
5.4325285e-09
5.7410067e-09
6.0631874e-09
6.3744192e-09
6.6517279e-09
6.8791902e-09
7.0523962e-09
7.1752127e-09
7.2561056e-09
7.3055051e-09
7.3345773e-09
7.352133e-09
7.364605e-09
7.3722035e-09
7.378049e-09
7.3840047e-09
7.3939336e-09
7.4038167e-09
7.4182919e-09
7.4374738e-09
7.448817e-09
7.4541674e-09
7.45523e-09
7.4326768e-09
7.408795e-09
7.3945856e-09
7.3863742e-09
7.3818404e-09
7.3825471e-09
0.00098238506
0.0016338559
0.0013172105
0.0002806793
4.7331325e-08
5.3496719e-09
4.4432441e-09
4.3233204e-09
4.1015993e-09
4.1228463e-09
4.0636166e-09
4.1240757e-09
4.1323742e-09
4.2114947e-09
4.2714505e-09
4.3727944e-09
4.482524e-09
4.6280762e-09
4.8005277e-09
5.013155e-09
5.2638774e-09
5.5541503e-09
5.8718194e-09
6.1972974e-09
6.5044822e-09
6.7710041e-09
6.9835944e-09
7.1407136e-09
7.2474144e-09
7.3129035e-09
7.3493371e-09
7.3682185e-09
7.3781607e-09
7.3844907e-09
7.3870439e-09
7.3892169e-09
7.3921533e-09
7.4001298e-09
7.4089255e-09
7.4232334e-09
7.4410252e-09
7.4510193e-09
7.4551339e-09
7.4552e-09
7.4292944e-09
7.4070425e-09
7.3937194e-09
7.3859508e-09
7.3815659e-09
7.3822727e-09
0.00097155272
0.0015683856
0.0012028322
0.00021275082
2.5538814e-08
5.3287478e-09
4.4626008e-09
4.3494484e-09
4.1356033e-09
4.1599856e-09
4.1051163e-09
4.1683808e-09
4.181218e-09
4.2638445e-09
4.3294531e-09
4.4363703e-09
4.5540105e-09
4.7084316e-09
4.891882e-09
5.1167935e-09
5.3807966e-09
5.6831164e-09
6.0088908e-09
6.3357126e-09
6.6365036e-09
6.8902848e-09
7.0870751e-09
7.227493e-09
7.3169637e-09
7.3669422e-09
7.3907967e-09
7.4001676e-09
7.4026757e-09
7.4032752e-09
7.4008922e-09
7.3997355e-09
7.4000452e-09
7.4059669e-09
7.4138622e-09
7.4279073e-09
7.4442765e-09
7.4532014e-09
7.4566254e-09
7.4546575e-09
7.4263652e-09
7.4054993e-09
7.3929635e-09
7.3855574e-09
7.38128e-09
7.3819579e-09
0.00096118934
0.001504117
0.0010874413
0.00015067199
1.6030839e-08
5.3151223e-09
4.4845538e-09
4.3782857e-09
4.1722282e-09
4.1998801e-09
4.1495737e-09
4.2158097e-09
4.2334617e-09
4.3198821e-09
4.3915598e-09
4.5045985e-09
4.6307329e-09
4.7947095e-09
4.9898702e-09
5.2277225e-09
5.5053081e-09
5.8192458e-09
6.1516982e-09
6.4776289e-09
6.7696472e-09
7.0090846e-09
7.1893877e-09
7.3117594e-09
7.3832887e-09
7.4178445e-09
7.4299239e-09
7.4304481e-09
7.4258489e-09
7.420963e-09
7.4138741e-09
7.4093085e-09
7.4077304e-09
7.4114741e-09
7.4185968e-09
7.4322479e-09
7.4471538e-09
7.4552634e-09
7.4582665e-09
7.4532996e-09
7.4238137e-09
7.4041748e-09
7.3923104e-09
7.3851867e-09
7.3809798e-09
7.3816017e-09
0.00095153596
0.0014434577
0.0009746729
9.6566478e-05
1.1475487e-08
5.3063628e-09
4.5091383e-09
4.4097507e-09
4.2115847e-09
4.2426636e-09
4.1970789e-09
4.266435e-09
4.2892708e-09
4.3797754e-09
4.4580128e-09
4.5777457e-09
4.7130252e-09
4.8872994e-09
5.0949242e-09
5.3463771e-09
5.6377154e-09
5.9625668e-09
6.2998905e-09
6.6224378e-09
6.9033562e-09
7.127244e-09
7.2899542e-09
7.3926245e-09
7.4457519e-09
7.4656371e-09
7.4672247e-09
7.4589805e-09
7.4475657e-09
7.4374802e-09
7.4259103e-09
7.4181625e-09
7.4149787e-09
7.4167399e-09
7.423106e-09
7.4363046e-09
7.4497011e-09
7.4570365e-09
7.4597372e-09
7.4513087e-09
7.4216292e-09
7.4030613e-09
7.3917454e-09
7.3848312e-09
7.380666e-09
7.3812061e-09
0.00094235748
0.001381385
0.00086523609
5.4210021e-05
9.1283038e-09
5.3016918e-09
4.5363117e-09
4.44403e-09
4.253671e-09
4.2884208e-09
4.2477058e-09
4.3204175e-09
4.3487945e-09
4.4437751e-09
4.5291068e-09
4.65612e-09
4.8012273e-09
4.9865291e-09
5.2073767e-09
5.4729559e-09
5.7780124e-09
6.1126516e-09
6.4527047e-09
6.7692211e-09
7.0370239e-09
7.2444396e-09
7.3874864e-09
7.4692672e-09
7.5041288e-09
7.5111804e-09
7.5023382e-09
7.4856378e-09
7.4678628e-09
7.4528449e-09
7.4370597e-09
7.4263475e-09
7.4215869e-09
7.4218698e-09
7.4273892e-09
7.4401839e-09
7.4519986e-09
7.4583077e-09
7.4604998e-09
7.448787e-09
7.4198003e-09
7.4021185e-09
7.3912533e-09
7.3844844e-09
7.3803513e-09
7.3807753e-09
0.00093399541
0.0013185858
0.00076089245
2.6428508e-05
7.8497678e-09
5.3015822e-09
4.5662739e-09
4.4810232e-09
4.2986676e-09
4.337102e-09
4.3016334e-09
4.377942e-09
4.4123189e-09
4.5121946e-09
4.6051294e-09
4.740085e-09
4.8957294e-09
5.0928796e-09
5.3276985e-09
5.607924e-09
5.9263632e-09
6.2693329e-09
6.6095634e-09
6.9173992e-09
7.1704455e-09
7.3599047e-09
7.4809134e-09
7.5410978e-09
7.5592291e-09
7.5543345e-09
7.5351201e-09
7.5104389e-09
7.4867274e-09
7.4670626e-09
7.4473482e-09
7.4339567e-09
7.4275112e-09
7.4268415e-09
7.4314496e-09
7.4439232e-09
7.4540287e-09
7.4591742e-09
7.4607953e-09
7.4458885e-09
7.418199e-09
7.4012962e-09
7.3908269e-09
7.3841509e-09
7.3800156e-09
7.3803174e-09
0.00092632382
0.0012545253
0.00066291254
1.1517172e-05
7.1239117e-09
5.3082632e-09
4.5990021e-09
4.5208863e-09
4.3466498e-09
4.3889449e-09
4.3591078e-09
4.4393179e-09
4.4801448e-09
4.5853303e-09
4.6864555e-09
4.8300134e-09
4.99693e-09
5.2067294e-09
5.4562458e-09
5.7513991e-09
6.0825418e-09
6.4318861e-09
6.7695228e-09
7.0662132e-09
7.3032463e-09
7.4720811e-09
7.5692188e-09
7.6081393e-09
7.611921e-09
7.5945612e-09
7.5655655e-09
7.5333968e-09
7.5041906e-09
7.4801564e-09
7.4567714e-09
7.4408863e-09
7.4329419e-09
7.4315987e-09
7.4352929e-09
7.4474916e-09
7.4559162e-09
7.459936e-09
7.4608861e-09
7.4429118e-09
7.416666e-09
7.4005523e-09
7.3904646e-09
7.3838533e-09
7.3796767e-09
7.3798312e-09
0.00091947541
0.001190181
0.00057212853
4.7159122e-06
6.698754e-09
5.3195972e-09
4.634633e-09
4.5638551e-09
4.3979184e-09
4.4443434e-09
4.4204535e-09
4.5048348e-09
4.552591e-09
4.6634785e-09
4.7734259e-09
4.9263046e-09
5.1053032e-09
5.328621e-09
5.5935566e-09
5.9037606e-09
6.2465262e-09
6.5998709e-09
6.9319686e-09
7.2153344e-09
7.4347374e-09
7.5796157e-09
7.6517735e-09
7.6717339e-09
7.6613964e-09
7.6319635e-09
7.5936904e-09
7.5545498e-09
7.5202773e-09
7.4921437e-09
7.4653154e-09
7.4471708e-09
7.4379461e-09
7.4361112e-09
7.4389414e-09
7.4507768e-09
7.4577933e-09
7.4607799e-09
7.4608648e-09
7.4398994e-09
7.415122e-09
7.3998304e-09
7.3901464e-09
7.3836171e-09
7.3793718e-09
7.3793156e-09
0.0009133083
0.0011288309
0.00048888606
1.9116928e-06
6.4436041e-09
5.3342411e-09
4.673545e-09
4.6102909e-09
4.4528131e-09
4.5036592e-09
4.4859349e-09
4.5747661e-09
4.629887e-09
4.7470296e-09
4.8664331e-09
5.029405e-09
5.2212935e-09
5.4590031e-09
5.7399324e-09
6.0649518e-09
6.4177497e-09
6.7723159e-09
7.0960043e-09
7.3642566e-09
7.5630704e-09
7.6813548e-09
7.7288687e-09
7.7322237e-09
7.7073949e-09
7.6664911e-09
7.6195407e-09
7.573946e-09
7.5350286e-09
7.5030453e-09
7.47298e-09
7.452848e-09
7.4425817e-09
7.4403689e-09
7.442451e-09
7.4536108e-09
7.4596187e-09
7.462049e-09
7.4604134e-09
7.4368522e-09
7.4135182e-09
7.3990645e-09
7.389822e-09
7.3834414e-09
7.3791613e-09
7.3787711e-09
0.00090679595
0.0010583258
0.000412935
8.0002794e-07
6.2889883e-09
5.3528867e-09
4.7161783e-09
4.6604714e-09
4.5115904e-09
4.5669851e-09
4.5557737e-09
4.6493213e-09
4.7124226e-09
4.8363167e-09
4.9659054e-09
5.1397887e-09
5.3454773e-09
5.5984979e-09
5.8959036e-09
6.235157e-09
6.5959076e-09
6.9486377e-09
7.2611865e-09
7.512608e-09
7.6864751e-09
7.7764802e-09
7.801915e-09
7.7888963e-09
7.749934e-09
7.6982184e-09
7.6431771e-09
7.5916432e-09
7.548486e-09
7.5128814e-09
7.4797865e-09
7.4579652e-09
7.4468747e-09
7.4443686e-09
7.4458481e-09
7.4559706e-09
7.4612148e-09
7.463438e-09
7.4592773e-09
7.4337912e-09
7.4118514e-09
7.3982202e-09
7.3894469e-09
7.383338e-09
7.3790283e-09
7.3782006e-09
0.00090039385
0.00098739833
0.00034500304
3.575533e-07
6.1959629e-09
5.3754906e-09
4.7625829e-09
4.7144212e-09
4.574314e-09
4.6343733e-09
4.6302184e-09
4.7288415e-09
4.8005423e-09
4.9318088e-09
5.0723131e-09
5.2579816e-09
5.4783956e-09
5.7475694e-09
6.0616273e-09
6.4139768e-09
6.7800672e-09
7.1277933e-09
7.4268099e-09
7.658329e-09
7.8036444e-09
7.8651535e-09
7.8713165e-09
7.841391e-09
7.7890266e-09
7.727202e-09
7.6646736e-09
7.6077086e-09
7.5607019e-09
7.5216821e-09
7.4857766e-09
7.4625635e-09
7.4508376e-09
7.448101e-09
7.4490783e-09
7.4580256e-09
7.4624162e-09
7.464299e-09
7.4575809e-09
7.4307686e-09
7.4101733e-09
7.3973554e-09
7.3890601e-09
7.3832618e-09
7.3788863e-09
7.3776123e-09
0.00089373908
0.00091184931
0.00028442251
1.7497972e-07
6.1414941e-09
5.4019928e-09
4.8124809e-09
4.7722143e-09
4.6410902e-09
4.706245e-09
4.7095919e-09
4.8137738e-09
4.8946682e-09
5.0339073e-09
5.1861474e-09
5.3845827e-09
5.6207628e-09
5.9068862e-09
6.2375168e-09
6.6012896e-09
6.9697049e-09
7.3092254e-09
7.5925765e-09
7.7995072e-09
7.9134879e-09
7.9488533e-09
7.9363154e-09
7.8897754e-09
7.824759e-09
7.7535374e-09
7.6841158e-09
7.6222158e-09
7.5717338e-09
7.529487e-09
7.4910026e-09
7.4666851e-09
7.4544721e-09
7.4515387e-09
7.452171e-09
7.4598104e-09
7.4633653e-09
7.4647374e-09
7.4553646e-09
7.4278622e-09
7.4085527e-09
7.3965187e-09
7.3886788e-09
7.3831745e-09
7.3786994e-09
7.3770277e-09
0.00088649587
0.00083461766
0.00023107313
9.5269709e-08
6.1093502e-09
5.4323109e-09
4.8665181e-09
4.8341605e-09
4.7125447e-09
4.7829383e-09
4.7943753e-09
4.9044436e-09
4.9951685e-09
5.1431432e-09
5.3079762e-09
5.5202793e-09
5.7731702e-09
6.0768826e-09
6.4233511e-09
6.7963334e-09
7.1636319e-09
7.4919815e-09
7.7568308e-09
7.9341605e-09
8.0155942e-09
8.0284578e-09
7.9963408e-09
7.9340548e-09
7.8572181e-09
7.777321e-09
7.7015975e-09
7.6352477e-09
7.581647e-09
7.536342e-09
7.4955203e-09
7.4703747e-09
7.4577915e-09
7.4546623e-09
7.4550899e-09
7.4613534e-09
7.4640374e-09
7.4648912e-09
7.4527128e-09
7.4251515e-09
7.4070416e-09
7.3957331e-09
7.3883046e-09
7.3830591e-09
7.3784611e-09
7.3764585e-09
0.00087915619
0.00075436421
0.00018455587
5.7633155e-08
6.0932465e-09
5.4672163e-09
4.9249236e-09
4.9008233e-09
4.7889232e-09
4.8649349e-09
4.8848574e-09
5.0012464e-09
5.1024672e-09
5.2599233e-09
5.4384939e-09
5.6658072e-09
5.93648e-09
6.2581021e-09
6.6192977e-09
6.9986124e-09
7.3613193e-09
7.6756253e-09
7.9174135e-09
8.061085e-09
8.1114698e-09
8.103091e-09
8.0515256e-09
7.9743498e-09
7.8865337e-09
7.7986716e-09
7.7172238e-09
7.6468904e-09
7.5904956e-09
7.5422686e-09
7.4993935e-09
7.4736725e-09
7.4608193e-09
7.4574483e-09
7.4577298e-09
7.4628012e-09
7.4647159e-09
7.4649412e-09
7.4496681e-09
7.422688e-09
7.4056675e-09
7.3950049e-09
7.3879334e-09
7.3829078e-09
7.3781757e-09
7.3759067e-09
0.00087318606
0.0006902578
0.00014520968
3.8369157e-08
6.0888137e-09
5.5069478e-09
4.9880697e-09
4.9724398e-09
4.870539e-09
4.9524077e-09
4.9813786e-09
5.1045829e-09
5.2170766e-09
5.385162e-09
5.578499e-09
5.8219857e-09
6.1112967e-09
6.4506585e-09
6.8246997e-09
7.2069745e-09
7.5615606e-09
7.8590326e-09
8.0714678e-09
8.1790411e-09
8.2026428e-09
8.1719595e-09
8.1018546e-09
8.0107669e-09
7.9128334e-09
7.8177119e-09
7.7311055e-09
7.6572289e-09
7.5983126e-09
7.5472454e-09
7.5027179e-09
7.4765963e-09
7.4635464e-09
7.4598948e-09
7.4599993e-09
7.4640713e-09
7.4656232e-09
7.464637e-09
7.4464136e-09
7.4204698e-09
7.4044293e-09
7.3943377e-09
7.387569e-09
7.3827147e-09
7.3778531e-09
7.3753648e-09
0.00086849884
0.00063907509
0.00011197445
2.7647455e-08
6.0936143e-09
5.55176e-09
5.0562247e-09
5.0491822e-09
4.9575808e-09
5.0456084e-09
5.0843422e-09
5.2150385e-09
5.3397169e-09
5.5196432e-09
5.7288407e-09
5.9897823e-09
6.298392e-09
6.6549001e-09
7.0392772e-09
7.4208148e-09
7.7637652e-09
8.0399945e-09
8.2176349e-09
8.2893873e-09
8.2882908e-09
8.2351405e-09
8.1474895e-09
8.0434781e-09
7.9362775e-09
7.834582e-09
7.7433565e-09
7.666333e-09
7.6051151e-09
7.551266e-09
7.5056051e-09
7.479143e-09
7.4659464e-09
7.4620722e-09
7.4619623e-09
7.4651256e-09
7.4664061e-09
7.463689e-09
7.4430454e-09
7.4184518e-09
7.4032958e-09
7.3937294e-09
7.3872305e-09
7.3824768e-09
7.3775003e-09
7.374834e-09
0.00086497575
0.00059453112
8.3379141e-05
2.1149137e-08
6.1065322e-09
5.6018831e-09
5.1294502e-09
5.1312609e-09
5.0503438e-09
5.1449774e-09
5.1943321e-09
5.3333887e-09
5.4712143e-09
5.6642471e-09
5.8905219e-09
6.1700234e-09
6.4981687e-09
6.8704134e-09
7.2618774e-09
7.6387674e-09
7.9666511e-09
8.2154018e-09
8.3541348e-09
8.3935273e-09
8.3675916e-09
8.2926068e-09
8.1885469e-09
8.0726421e-09
7.957025e-09
7.8494224e-09
7.7540826e-09
7.6742611e-09
7.6109402e-09
7.5545384e-09
7.5080385e-09
7.4813136e-09
7.4679961e-09
7.463934e-09
7.4637141e-09
7.4659235e-09
7.4667695e-09
7.4621653e-09
7.4396995e-09
7.4165481e-09
7.4022117e-09
7.3931517e-09
7.3869551e-09
7.3821938e-09
7.3771239e-09
7.3743166e-09
0.00086295849
0.00055751966
5.9931154e-05
1.7032977e-08
6.1263834e-09
5.6568339e-09
5.2077464e-09
5.2187518e-09
5.1494859e-09
5.251295e-09
5.3122638e-09
5.4604755e-09
5.6125343e-09
5.8199288e-09
6.0645923e-09
6.3636789e-09
6.7111996e-09