/*--------------------------------*- C++ -*----------------------------------*\
  =========                 |
  \\      /  F ield         | OpenFOAM: The Open Source CFD Toolbox
   \\    /   O peration     | Website:  https://openfoam.org
    \\  /    A nd           | Version:  8
     \\/     M anipulation  |
\*---------------------------------------------------------------------------*/
FoamFile
{
    version     2.0;
    format      ascii;
    class       volScalarField;
    location    "0.0900078";
    object      nuTilda;
}
// * * * * * * * * * * * * * * * * * * * * * * * * * * * * * * * * * * * * * //

dimensions      [0 2 -1 0 0 0 0];

internalField   nonuniform List<scalar> 
20000
(
0.0011727331
0.0028060237
0.0036327927
0.0037302717
0.0030061768
0.0010385101
6.3283644e-05
1.0576596e-05
1.0194263e-05
1.0152297e-05
1.0069836e-05
1.0070103e-05
1.0020471e-05
1.002556e-05
1.0010471e-05
1.0012993e-05
1.0007087e-05
1.0006318e-05
1.0003784e-05
1.0002865e-05
1.0001848e-05
1.0001571e-05
1.0001503e-05
1.0001399e-05
1.0001224e-05
1.0001032e-05
1.0000839e-05
1.0000643e-05
1.0000476e-05
1.0000375e-05
1.0000346e-05
1.0000335e-05
1.0000321e-05
1.0000369e-05
1.0000476e-05
1.0000522e-05
1.0000549e-05
1.000069e-05
1.0000795e-05
1.0000777e-05
1.0000723e-05
1.000065e-05
1.0000625e-05
1.0000664e-05
1.0000685e-05
1.0000635e-05
1.0000578e-05
1.0000495e-05
1.0000631e-05
1.0000473e-05
0.0011732919
0.002767088
0.0035349229
0.0035666718
0.0027750734
0.00083468722
4.2806493e-05
1.0500135e-05
1.0188984e-05
1.0149553e-05
1.0068436e-05
1.0069472e-05
1.0019993e-05
1.0025245e-05
1.0010305e-05
1.0012828e-05
1.0006995e-05
1.0006236e-05
1.0003754e-05
1.0002836e-05
1.000182e-05
1.0001533e-05
1.0001469e-05
1.0001364e-05
1.0001186e-05
1.0000981e-05
1.0000784e-05
1.0000601e-05
1.0000442e-05
1.000035e-05
1.0000331e-05
1.0000328e-05
1.0000318e-05
1.0000365e-05
1.0000472e-05
1.0000515e-05
1.0000538e-05
1.0000679e-05
1.0000789e-05
1.0000778e-05
1.000073e-05
1.0000657e-05
1.0000625e-05
1.0000662e-05
1.0000698e-05
1.0000637e-05
1.0000575e-05
1.0000495e-05
1.000063e-05
1.000046e-05
0.0011683784
0.0027205892
0.0034381868
0.0034163614
0.0025439384
0.00066122036
2.9917709e-05
1.0459e-05
1.0183902e-05
1.0146552e-05
1.0067083e-05
1.0068767e-05
1.0019546e-05
1.0024832e-05
1.0010132e-05
1.0012611e-05
1.0006898e-05
1.000615e-05
1.0003726e-05
1.0002823e-05
1.0001821e-05
1.0001535e-05
1.0001469e-05
1.0001357e-05
1.0001176e-05
1.0000975e-05
1.0000786e-05
1.0000605e-05
1.0000447e-05
1.0000351e-05
1.0000331e-05
1.000033e-05
1.0000318e-05
1.0000365e-05
1.0000472e-05
1.0000517e-05
1.0000536e-05
1.0000677e-05
1.0000789e-05
1.0000784e-05
1.0000743e-05
1.0000673e-05
1.0000644e-05
1.0000662e-05
1.0000701e-05
1.0000639e-05
1.0000574e-05
1.0000513e-05
1.0000608e-05
1.0000451e-05
0.0011634222
0.002673579
0.0033402526
0.0032625409
0.0023095336
0.00051868865
2.1928907e-05
1.0433525e-05
1.0178945e-05
1.0143612e-05
1.0065717e-05
1.0068046e-05
1.0019092e-05
1.0024423e-05
1.0009966e-05
1.0012399e-05
1.0006801e-05
1.0006057e-05
1.0003693e-05
1.0002799e-05
1.000181e-05
1.0001524e-05
1.0001468e-05
1.0001354e-05
1.0001176e-05
1.0000979e-05
1.0000787e-05
1.0000607e-05
1.0000448e-05
1.0000349e-05
1.0000328e-05
1.0000328e-05
1.0000318e-05
1.0000363e-05
1.0000471e-05
1.0000515e-05
1.0000535e-05
1.0000677e-05
1.0000794e-05
1.0000794e-05
1.0000759e-05
1.0000693e-05
1.0000661e-05
1.0000666e-05
1.0000703e-05
1.0000654e-05
1.0000581e-05
1.000052e-05
1.0000589e-05
1.0000439e-05
0.0011577609
0.0026257088
0.0032427093
0.0031154763
0.0020756163
0.00039821878
1.6997119e-05
1.0415427e-05
1.0174084e-05
1.0140658e-05
1.0064343e-05
1.0067311e-05
1.0018639e-05
1.0024004e-05
1.0009806e-05
1.0012183e-05
1.0006705e-05
1.0005966e-05
1.0003661e-05
1.0002779e-05
1.0001806e-05
1.0001519e-05
1.0001464e-05
1.0001348e-05
1.0001172e-05
1.0000976e-05
1.0000786e-05
1.0000608e-05
1.0000451e-05
1.000035e-05
1.0000327e-05
1.0000328e-05
1.0000319e-05
1.0000363e-05
1.000047e-05
1.0000514e-05
1.0000534e-05
1.0000676e-05
1.0000799e-05
1.0000801e-05
1.0000773e-05
1.0000711e-05
1.0000679e-05
1.0000669e-05
1.0000703e-05
1.0000663e-05
1.00006e-05
1.0000529e-05
1.0000567e-05
1.0000426e-05
0.0011512318
0.0025774746
0.0031412683
0.0029643289
0.0018435498
0.0002996801
1.4081003e-05
1.0400914e-05
1.0169298e-05
1.0137698e-05
1.0062962e-05
1.0066555e-05
1.0018186e-05
1.0023576e-05
1.0009651e-05
1.0011964e-05
1.0006609e-05
1.0005873e-05
1.0003628e-05
1.0002757e-05
1.0001801e-05
1.0001513e-05
1.0001462e-05
1.0001347e-05
1.000117e-05
1.0000973e-05
1.0000784e-05
1.0000609e-05
1.0000454e-05
1.000035e-05
1.0000326e-05
1.0000327e-05
1.0000319e-05
1.0000362e-05
1.000047e-05
1.0000513e-05
1.0000534e-05
1.0000675e-05
1.0000804e-05
1.0000807e-05
1.0000787e-05
1.000073e-05
1.0000698e-05
1.000068e-05
1.0000702e-05
1.0000674e-05
1.0000618e-05
1.0000535e-05
1.000055e-05
1.0000412e-05
0.0011446184
0.0025308998
0.0030449787
0.0028151796
0.0016185606
0.0002213201
1.2421735e-05
1.0388064e-05
1.0164578e-05
1.0134731e-05
1.0061573e-05
1.0065779e-05
1.0017734e-05
1.0023138e-05
1.0009503e-05
1.0011742e-05
1.0006515e-05
1.0005779e-05
1.0003596e-05
1.0002737e-05
1.0001797e-05
1.0001506e-05
1.0001463e-05
1.0001344e-05
1.0001165e-05
1.0000968e-05
1.0000782e-05
1.0000609e-05
1.0000456e-05
1.0000351e-05
1.0000325e-05
1.0000327e-05
1.000032e-05
1.0000362e-05
1.0000469e-05
1.0000512e-05
1.0000534e-05
1.0000673e-05
1.0000809e-05
1.0000812e-05
1.0000799e-05
1.0000748e-05
1.0000718e-05
1.0000694e-05
1.0000704e-05
1.0000676e-05
1.0000635e-05
1.0000543e-05
1.0000532e-05
1.0000396e-05
0.0011376941
0.0024853182
0.0029531729
0.002669281
0.0014029065
0.00016038864
1.1505491e-05
1.0375839e-05
1.015991e-05
1.0131754e-05
1.0060176e-05
1.0064981e-05
1.0017283e-05
1.0022691e-05
1.0009361e-05
1.0011517e-05
1.0006423e-05
1.0005685e-05
1.0003563e-05
1.0002714e-05
1.000179e-05
1.0001496e-05
1.0001463e-05
1.0001339e-05
1.0001158e-05
1.0000963e-05
1.0000778e-05
1.0000608e-05
1.0000458e-05
1.0000353e-05
1.0000324e-05
1.0000327e-05
1.000032e-05
1.0000363e-05
1.0000469e-05
1.000051e-05
1.0000534e-05
1.0000671e-05
1.0000813e-05
1.0000818e-05
1.0000811e-05
1.0000766e-05
1.0000737e-05
1.000071e-05
1.000071e-05
1.0000677e-05
1.000065e-05
1.0000557e-05
1.0000507e-05
1.000038e-05
0.0011303695
0.0024401167
0.0028620677
0.0025239091
0.0011996597
0.00011442611
1.1011634e-05
1.0364167e-05
1.0155289e-05
1.0128757e-05
1.0058772e-05
1.0064159e-05
1.0016834e-05
1.0022234e-05
1.0009226e-05
1.0011292e-05
1.0006332e-05
1.000559e-05
1.0003527e-05
1.0002687e-05
1.0001781e-05
1.0001486e-05
1.000146e-05
1.0001332e-05
1.0001151e-05
1.0000957e-05
1.0000775e-05
1.0000607e-05
1.0000459e-05
1.0000353e-05
1.0000323e-05
1.0000327e-05
1.0000321e-05
1.0000363e-05
1.0000469e-05
1.0000508e-05
1.0000534e-05
1.0000668e-05
1.0000818e-05
1.0000823e-05
1.0000823e-05
1.0000784e-05
1.0000755e-05
1.0000729e-05
1.0000718e-05
1.0000676e-05
1.0000661e-05
1.0000568e-05
1.0000489e-05
1.0000363e-05
0.001122513
0.0023951345
0.0027719515
0.0023772201
0.0010111231
8.0667293e-05
1.0749014e-05
1.0354321e-05
1.0150707e-05
1.0125733e-05
1.0057357e-05
1.0063309e-05
1.0016388e-05
1.0021769e-05
1.0009099e-05
1.0011063e-05
1.0006243e-05
1.0005491e-05
1.0003487e-05
1.0002657e-05
1.0001774e-05
1.0001479e-05
1.0001455e-05
1.0001325e-05
1.0001143e-05
1.0000951e-05
1.0000771e-05
1.0000606e-05
1.0000459e-05
1.0000354e-05
1.0000322e-05
1.0000327e-05
1.0000321e-05
1.0000364e-05
1.0000469e-05
1.0000506e-05
1.0000534e-05
1.0000665e-05
1.0000822e-05
1.0000829e-05
1.0000834e-05
1.0000802e-05
1.0000773e-05
1.0000749e-05
1.0000728e-05
1.000067e-05
1.0000668e-05
1.0000579e-05
1.0000477e-05
1.0000344e-05
0.0011146026
0.0023505838
0.002682686
0.0022300363
0.00083961803
5.6672043e-05
1.0608995e-05
1.0344463e-05
1.0146157e-05
1.0122688e-05
1.0055926e-05
1.0062431e-05
1.0015953e-05
1.0021294e-05
1.0008978e-05
1.0010829e-05
1.0006151e-05
1.0005388e-05
1.0003447e-05
1.0002629e-05
1.0001769e-05
1.0001473e-05
1.0001449e-05
1.0001317e-05
1.0001136e-05
1.0000945e-05
1.0000767e-05
1.0000604e-05
1.0000459e-05
1.0000354e-05
1.0000322e-05
1.0000326e-05
1.0000321e-05
1.0000365e-05
1.0000469e-05
1.0000504e-05
1.0000533e-05
1.0000662e-05
1.0000824e-05
1.0000834e-05
1.0000845e-05
1.000082e-05
1.0000791e-05
1.0000765e-05
1.0000742e-05
1.0000666e-05
1.0000675e-05
1.0000591e-05
1.0000465e-05
1.0000325e-05
0.0011064835
0.0023068019
0.0025940505
0.0020824109
0.0006864829
4.0193605e-05
1.0531764e-05
1.0334794e-05
1.0141669e-05
1.0119626e-05
1.0054493e-05
1.0061418e-05
1.0015557e-05
1.0020805e-05
1.0008861e-05
1.0010588e-05
1.000606e-05
1.0005286e-05
1.0003409e-05
1.0002602e-05
1.0001765e-05
1.0001468e-05
1.0001443e-05
1.000131e-05
1.0001128e-05
1.0000938e-05
1.0000763e-05
1.0000602e-05
1.0000459e-05
1.0000354e-05
1.0000321e-05
1.0000325e-05
1.0000321e-05
1.0000366e-05
1.0000469e-05
1.0000502e-05
1.0000531e-05
1.000066e-05
1.0000816e-05
1.000084e-05
1.0000856e-05
1.0000838e-05
1.000081e-05
1.0000782e-05
1.0000761e-05
1.0000653e-05
1.0000681e-05
1.0000604e-05
1.0000455e-05
1.0000305e-05
0.0010985003
0.0022644889
0.0025066933
0.0019301079
0.00055281623
2.9262232e-05
1.048621e-05
1.0325533e-05
1.0137485e-05
1.0116478e-05
1.0053887e-05
1.0057578e-05
1.0015307e-05
1.0020304e-05
1.000875e-05
1.0010347e-05
1.0005973e-05
1.0005186e-05
1.0003372e-05
1.0002576e-05
1.0001762e-05
1.0001464e-05
1.0001437e-05
1.0001301e-05
1.000112e-05
1.0000931e-05
1.0000758e-05
1.0000599e-05
1.0000458e-05
1.0000354e-05
1.000032e-05
1.0000324e-05
1.0000321e-05
1.0000366e-05
1.0000469e-05
1.00005e-05
1.0000528e-05
1.000066e-05
1.0000789e-05
1.0000846e-05
1.0000866e-05
1.0000856e-05
1.000083e-05
1.0000801e-05
1.0000775e-05
1.0000645e-05
1.0000685e-05
1.0000617e-05
1.0000447e-05
1.0000286e-05
0.0010907813
0.0022238515
0.0024255678
0.0017734447
0.00044219997
2.2294507e-05
1.0466203e-05
1.0317937e-05
1.0136111e-05
1.011273e-05
1.0049449e-05
1.0051711e-05
1.0014976e-05
1.0019792e-05
1.0008646e-05
1.0010107e-05
1.0005889e-05
1.0005087e-05
1.0003335e-05
1.0002549e-05
1.0001758e-05
1.0001461e-05
1.000143e-05
1.0001293e-05
1.0001111e-05
1.0000925e-05
1.0000753e-05
1.0000597e-05
1.0000457e-05
1.0000353e-05
1.0000318e-05
1.0000323e-05
1.000032e-05
1.0000367e-05
1.0000469e-05
1.0000497e-05
1.0000524e-05
1.000066e-05
1.00008e-05
1.0000852e-05
1.0000876e-05
1.0000874e-05
1.0000853e-05
1.000082e-05
1.0000789e-05
1.0000646e-05
1.0000689e-05
1.0000629e-05
1.0000439e-05
1.0000268e-05
0.0010831491
0.002183607
0.0023486684
0.0016116284
0.00034906536
1.7848664e-05
1.0455791e-05
1.0312321e-05
1.0131778e-05
1.0107896e-05
1.0043898e-05
1.0045964e-05
1.0014514e-05
1.0019274e-05
1.000855e-05
1.0009867e-05
1.0005806e-05
1.0004988e-05
1.0003298e-05
1.0002522e-05
1.0001755e-05
1.0001458e-05
1.0001423e-05
1.0001285e-05
1.0001103e-05
1.0000918e-05
1.0000748e-05
1.0000594e-05
1.0000456e-05
1.0000352e-05
1.0000317e-05
1.0000322e-05
1.000032e-05
1.0000367e-05
1.0000468e-05
1.0000495e-05
1.0000519e-05
1.0000659e-05
1.00008e-05
1.0000858e-05
1.0000885e-05
1.0000892e-05
1.0000875e-05
1.000084e-05
1.0000798e-05
1.0000652e-05
1.0000693e-05
1.0000639e-05
1.0000433e-05
1.0000252e-05
0.0010753968
0.0021431013
0.0022698834
0.0014460893
0.00027103378
1.5061515e-05
1.0445921e-05
1.0307538e-05
1.0128209e-05
1.0103179e-05
1.004034e-05
1.0041498e-05
1.0013905e-05
1.0018746e-05
1.000846e-05
1.0009626e-05
1.0005725e-05
1.0004889e-05
1.000326e-05
1.0002495e-05
1.0001752e-05
1.0001456e-05
1.0001415e-05
1.0001277e-05
1.0001095e-05
1.0000911e-05
1.0000743e-05
1.000059e-05
1.0000455e-05
1.0000351e-05
1.0000315e-05
1.0000321e-05
1.0000319e-05
1.0000367e-05
1.0000467e-05
1.0000493e-05
1.0000514e-05
1.0000658e-05
1.0000804e-05
1.0000865e-05
1.0000895e-05
1.0000908e-05
1.0000898e-05
1.000086e-05
1.0000802e-05
1.000067e-05
1.0000699e-05
1.0000648e-05
1.0000427e-05
1.0000237e-05
0.0010676261
0.0021028973
0.0021927148
0.0012828209
0.00020778335
1.336872e-05
1.0441999e-05
1.0301099e-05
1.0128215e-05
1.010044e-05
1.0039406e-05
1.0039819e-05
1.0013437e-05
1.0018222e-05
1.0008374e-05
1.0009387e-05
1.0005644e-05
1.0004792e-05
1.0003223e-05
1.0002469e-05
1.0001749e-05
1.0001454e-05
1.0001408e-05
1.0001268e-05
1.0001087e-05
1.0000904e-05
1.0000738e-05
1.0000587e-05
1.0000453e-05
1.000035e-05
1.0000314e-05
1.0000319e-05
1.0000317e-05
1.0000366e-05
1.0000465e-05
1.000049e-05
1.0000509e-05
1.0000657e-05
1.0000806e-05
1.0000871e-05
1.0000905e-05
1.0000924e-05
1.0000921e-05
1.0000879e-05
1.0000801e-05
1.0000698e-05
1.0000709e-05
1.0000658e-05
1.0000422e-05
1.0000224e-05
0.0010598654
0.0020625624
0.0021153814
0.0011313059
0.00015766913
1.2355749e-05
1.0432266e-05
1.0291201e-05
1.0124521e-05
1.0097171e-05
1.0038243e-05
1.0038641e-05
1.0013108e-05
1.0017697e-05
1.0008291e-05
1.0009148e-05
1.0005565e-05
1.0004695e-05
1.0003186e-05
1.0002443e-05
1.0001747e-05
1.0001454e-05
1.00014e-05
1.0001259e-05
1.0001079e-05
1.0000898e-05
1.0000732e-05
1.0000583e-05
1.0000451e-05
1.0000349e-05
1.0000312e-05
1.0000318e-05
1.0000316e-05
1.0000364e-05
1.0000464e-05
1.0000488e-05
1.0000505e-05
1.0000655e-05
1.0000808e-05
1.0000872e-05
1.0000916e-05
1.0000938e-05
1.0000942e-05
1.00009e-05
1.0000796e-05
1.0000725e-05
1.0000724e-05
1.0000667e-05
1.0000418e-05
1.0000212e-05
0.0010519865
0.002019819
0.00203628
0.00099003555
0.00011849827
1.1746564e-05
1.0418864e-05
1.0281979e-05
1.0120172e-05
1.009396e-05
1.0036856e-05
1.003735e-05
1.0012757e-05
1.0017169e-05
1.0008212e-05
1.0008911e-05
1.0005487e-05
1.00046e-05
1.0003149e-05
1.0002417e-05
1.0001744e-05
1.0001454e-05
1.0001393e-05
1.0001251e-05
1.000107e-05
1.0000891e-05
1.0000727e-05
1.0000579e-05
1.0000449e-05
1.0000348e-05
1.000031e-05
1.0000316e-05
1.0000314e-05
1.0000362e-05
1.0000461e-05
1.0000485e-05
1.00005e-05
1.0000654e-05
1.0000811e-05
1.0000863e-05
1.0000925e-05
1.0000951e-05
1.000096e-05
1.0000917e-05
1.0000791e-05
1.0000754e-05
1.0000745e-05
1.0000676e-05
1.0000413e-05
1.00002e-05
0.0010438906
0.0019741357
0.0019543113
0.00085961698
8.8449229e-05
1.1379224e-05
1.0404222e-05
1.027249e-05
1.011595e-05
1.0090728e-05
1.0035474e-05
1.0036077e-05
1.0012424e-05
1.0016644e-05
1.0008136e-05
1.0008676e-05
1.000541e-05
1.0004506e-05
1.0003113e-05
1.0002393e-05
1.0001742e-05
1.0001455e-05
1.0001385e-05
1.0001242e-05
1.0001062e-05
1.0000884e-05
1.0000721e-05
1.0000575e-05
1.0000446e-05
1.0000346e-05
1.0000308e-05
1.0000314e-05
1.0000312e-05
1.000036e-05
1.0000458e-05
1.0000482e-05
1.0000496e-05
1.0000653e-05
1.0000813e-05
1.000086e-05
1.0000933e-05
1.0000963e-05
1.0000977e-05
1.0000936e-05
1.0000793e-05
1.0000782e-05
1.0000768e-05
1.0000685e-05
1.0000408e-05
1.0000189e-05
0.0010354288
0.0019253295
0.0018683219
0.00074009313
6.5792867e-05
1.115866e-05
1.039003e-05
1.0263152e-05
1.0111733e-05
1.0087491e-05
1.0034109e-05
1.0034799e-05
1.0012103e-05
1.001612e-05
1.0008061e-05
1.0008444e-05
1.0005333e-05
1.0004415e-05
1.0003077e-05
1.0002369e-05
1.000174e-05
1.0001455e-05
1.0001377e-05
1.0001234e-05
1.0001054e-05
1.0000877e-05
1.0000715e-05
1.0000571e-05
1.0000444e-05
1.0000345e-05
1.0000306e-05
1.0000311e-05
1.0000309e-05
1.0000357e-05
1.0000455e-05
1.0000478e-05
1.0000491e-05
1.0000652e-05
1.0000817e-05
1.000086e-05
1.0000939e-05
1.0000975e-05
1.0000994e-05
1.0000961e-05
1.0000845e-05
1.0000806e-05
1.0000788e-05
1.0000693e-05
1.0000402e-05
1.0000179e-05
0.0010263391
0.0018727546
0.0017761305
0.00063153863
4.9145957e-05
1.1023119e-05
1.0376283e-05
1.0253852e-05
1.0107551e-05
1.0084259e-05
1.0032761e-05
1.0033527e-05
1.0011795e-05
1.0015603e-05
1.0007987e-05
1.0008216e-05
1.0005257e-05
1.0004325e-05
1.0003041e-05
1.0002346e-05
1.0001739e-05
1.0001454e-05
1.0001369e-05
1.0001226e-05
1.0001046e-05
1.000087e-05
1.000071e-05
1.0000567e-05
1.0000442e-05
1.0000343e-05
1.0000304e-05
1.0000309e-05
1.0000307e-05
1.0000354e-05
1.0000451e-05
1.0000473e-05
1.0000487e-05
1.0000651e-05
1.0000822e-05
1.0000867e-05
1.0000944e-05
1.0000984e-05
1.0001008e-05
1.0000972e-05
1.0000885e-05
1.0000827e-05
1.0000806e-05
1.00007e-05
1.0000397e-05
1.0000169e-05
0.0010167012
0.0018163879
0.0016718764
0.0005328
3.7053616e-05
1.093454e-05
1.0362826e-05
1.0244601e-05
1.0103397e-05
1.0081029e-05
1.0031432e-05
1.0032261e-05
1.0011501e-05
1.0015091e-05
1.0007914e-05
1.0007992e-05
1.0005182e-05
1.0004238e-05
1.0003007e-05
1.0002325e-05
1.0001738e-05
1.0001453e-05
1.0001362e-05
1.0001217e-05
1.0001038e-05
1.0000863e-05
1.0000704e-05
1.0000563e-05
1.0000439e-05
1.0000342e-05
1.0000302e-05
1.0000306e-05
1.0000304e-05
1.0000351e-05
1.0000447e-05
1.0000468e-05
1.0000483e-05
1.0000649e-05
1.0000825e-05
1.0000868e-05
1.0000951e-05
1.0000993e-05
1.000102e-05
1.0000979e-05
1.0000921e-05
1.0000845e-05
1.0000821e-05
1.0000706e-05
1.0000391e-05
1.0000159e-05
0.0010066479
0.0017577913
0.0015599608
0.0004446875
2.8539619e-05
1.0871923e-05
1.0349628e-05
1.023542e-05
1.0099281e-05
1.0077816e-05
1.0030126e-05
1.0031008e-05
1.0011223e-05
1.0014591e-05
1.0007841e-05
1.0007773e-05
1.0005108e-05
1.0004154e-05
1.0002973e-05
1.0002304e-05
1.0001737e-05
1.0001452e-05
1.0001354e-05
1.000121e-05
1.0001031e-05
1.0000856e-05
1.0000698e-05
1.0000558e-05
1.0000436e-05
1.000034e-05
1.00003e-05
1.0000304e-05
1.0000301e-05
1.0000348e-05
1.0000442e-05
1.0000462e-05
1.0000479e-05
1.0000645e-05
1.0000828e-05
1.0000872e-05
1.0000958e-05
1.0001003e-05
1.000103e-05
1.0000982e-05
1.0000934e-05
1.0000861e-05
1.0000834e-05
1.000071e-05
1.0000384e-05
1.000015e-05
0.00099630777
0.0016973773
0.0014407372
0.0003713313
2.2731911e-05
1.0824288e-05
1.0336604e-05
1.0226288e-05
1.0095203e-05
1.007462e-05
1.0028845e-05
1.0029768e-05
1.0010962e-05
1.00141e-05
1.0007763e-05
1.0007557e-05
1.0005036e-05
1.0004072e-05
1.000294e-05
1.0002285e-05
1.0001737e-05
1.0001451e-05
1.0001347e-05
1.0001202e-05
1.0001023e-05
1.0000849e-05
1.0000692e-05
1.0000553e-05
1.0000433e-05
1.0000339e-05
1.0000298e-05
1.0000301e-05
1.0000299e-05
1.0000345e-05
1.0000436e-05
1.0000456e-05
1.0000475e-05
1.0000641e-05
1.000083e-05
1.0000873e-05
1.0000962e-05
1.0001011e-05
1.0001031e-05
1.0000982e-05
1.0000918e-05
1.0000879e-05
1.0000845e-05
1.0000713e-05
1.0000379e-05
1.0000141e-05
0.00098567859
0.0016350095
0.0013188662
0.00030616639
1.8725006e-05
1.0784751e-05
1.0323752e-05
1.021725e-05
1.0091172e-05
1.0071458e-05
1.0027594e-05
1.0028548e-05
1.0010717e-05
1.0013621e-05
1.0007685e-05
1.000732e-05
1.0004963e-05
1.0003993e-05
1.0002908e-05
1.0002267e-05
1.0001738e-05
1.000145e-05
1.000134e-05
1.0001194e-05
1.0001016e-05
1.0000843e-05
1.0000685e-05
1.0000548e-05
1.000043e-05
1.0000338e-05
1.0000296e-05
1.0000298e-05
1.0000296e-05
1.0000342e-05
1.0000431e-05
1.0000449e-05
1.0000471e-05
1.0000636e-05
1.0000831e-05
1.0000874e-05
1.0000962e-05
1.0001016e-05
1.0001029e-05
1.0000983e-05
1.0000906e-05
1.0000899e-05
1.0000857e-05
1.0000715e-05
1.0000373e-05
1.0000132e-05
0.00097488603
0.0015696238
0.0012047853
0.00024840925
1.6005094e-05
1.0749771e-05
1.031105e-05
1.0208307e-05
1.0087192e-05
1.0068333e-05
1.0026374e-05
1.0027351e-05
1.0010491e-05
1.0013155e-05
1.0007605e-05
1.0007101e-05
1.0004891e-05
1.0003918e-05
1.0002877e-05
1.000225e-05
1.0001738e-05
1.0001449e-05
1.0001333e-05
1.0001187e-05
1.0001009e-05
1.0000835e-05
1.0000679e-05
1.0000543e-05
1.0000428e-05
1.0000337e-05
1.0000295e-05
1.0000295e-05
1.0000293e-05
1.0000339e-05
1.0000425e-05
1.0000442e-05
1.0000467e-05
1.000063e-05
1.0000829e-05
1.0000874e-05
1.000096e-05
1.0001021e-05
1.0001039e-05
1.0000986e-05
1.0000934e-05
1.0000922e-05
1.0000869e-05
1.0000716e-05
1.0000368e-05
1.0000123e-05
0.00096455859
0.0015054474
0.001089789
0.00019906598
1.4207859e-05
1.0717197e-05
1.0298478e-05
1.019946e-05
1.0083267e-05
1.0065249e-05
1.0025188e-05
1.0026179e-05
1.0010283e-05
1.0012704e-05
1.0007523e-05
1.0006897e-05
1.0004819e-05
1.0003845e-05
1.0002847e-05
1.0002234e-05
1.0001739e-05
1.0001448e-05
1.0001327e-05
1.000118e-05
1.0001002e-05
1.0000828e-05
1.0000672e-05
1.0000539e-05
1.0000426e-05
1.0000337e-05
1.0000293e-05
1.0000293e-05
1.000029e-05
1.0000336e-05
1.000042e-05
1.0000435e-05
1.0000463e-05
1.0000622e-05
1.0000824e-05
1.0000874e-05
1.0000961e-05
1.0001023e-05
1.000104e-05
1.0000994e-05
1.0000968e-05
1.0000947e-05
1.0000882e-05
1.0000716e-05
1.0000364e-05
1.0000114e-05
0.00095493315
0.0014448844
0.00097753985
0.00015788635
1.3033266e-05
1.0685903e-05
1.0286058e-05
1.0190742e-05
1.0079407e-05
1.0062219e-05
1.0024039e-05
1.0025037e-05
1.0010095e-05
1.001227e-05
1.0007439e-05
1.0006717e-05
1.0004748e-05
1.0003776e-05
1.0002819e-05
1.0002219e-05
1.000174e-05
1.0001448e-05
1.0001321e-05
1.0001174e-05
1.0000994e-05
1.000082e-05
1.0000666e-05
1.0000535e-05
1.0000425e-05
1.0000335e-05
1.0000291e-05
1.000029e-05
1.0000287e-05
1.0000333e-05
1.0000415e-05
1.0000427e-05
1.0000459e-05
1.0000613e-05
1.0000813e-05
1.0000875e-05
1.0000964e-05
1.0001025e-05
1.000105e-05
1.0001008e-05
1.0000992e-05
1.0000975e-05
1.0000896e-05
1.0000714e-05
1.0000361e-05
1.0000105e-05
0.00094577916
0.0013829225
0.00086879896
0.00012412068
1.2274763e-05
1.0655402e-05
1.0273778e-05
1.018214e-05
1.0075612e-05
1.0059242e-05
1.002293e-05
1.0023928e-05
1.0009927e-05
1.0011852e-05
1.0007352e-05
1.0006544e-05
1.0004677e-05
1.000371e-05
1.0002791e-05
1.0002206e-05
1.0001742e-05
1.0001448e-05
1.0001316e-05
1.0001167e-05
1.0000987e-05
1.0000813e-05
1.0000661e-05
1.0000532e-05
1.0000423e-05
1.0000334e-05
1.0000289e-05
1.0000287e-05
1.0000284e-05
1.0000329e-05
1.0000409e-05
1.000042e-05
1.0000455e-05
1.0000606e-05
1.00008e-05
1.0000876e-05
1.000097e-05
1.0001024e-05
1.0001052e-05
1.0001021e-05
1.0001012e-05
1.0000999e-05
1.000091e-05
1.0000712e-05
1.0000362e-05
1.0000096e-05
0.00093743215
0.0013202495
0.0007653939
9.6959819e-05
1.1786956e-05
1.062592e-05
1.026165e-05
1.0173665e-05
1.0071886e-05
1.0056327e-05
1.0021863e-05
1.0022853e-05
1.0009779e-05
1.0011452e-05
1.0007263e-05
1.0006378e-05
1.0004608e-05
1.0003647e-05
1.0002764e-05
1.0002193e-05
1.0001743e-05
1.0001449e-05
1.0001311e-05
1.0001161e-05
1.0000979e-05
1.0000807e-05
1.0000657e-05
1.0000529e-05
1.000042e-05
1.0000332e-05
1.0000287e-05
1.0000284e-05
1.0000281e-05
1.0000325e-05
1.0000404e-05
1.0000413e-05
1.0000451e-05
1.00006e-05
1.0000784e-05
1.0000877e-05
1.0000973e-05
1.0001011e-05
1.000105e-05
1.0001031e-05
1.000103e-05
1.0001017e-05
1.0000922e-05
1.0000708e-05
1.000036e-05
1.0000089e-05
0.00092976939
0.0012563359
0.00066868819
7.5570582e-05
1.1471209e-05
1.0598713e-05
1.0249709e-05
1.0165342e-05
1.0068239e-05
1.0053482e-05
1.0020841e-05
1.0021815e-05
1.0009652e-05
1.0011069e-05
1.0007172e-05
1.000622e-05
1.0004539e-05
1.0003588e-05
1.0002739e-05
1.000218e-05
1.0001743e-05
1.0001451e-05
1.0001307e-05
1.0001154e-05
1.0000972e-05
1.0000802e-05
1.0000654e-05
1.0000525e-05
1.0000416e-05
1.000033e-05
1.0000285e-05
1.0000282e-05
1.0000278e-05
1.000032e-05
1.0000398e-05
1.0000403e-05
1.0000447e-05
1.0000595e-05
1.000077e-05
1.0000877e-05
1.0000973e-05
1.0001008e-05
1.0001048e-05
1.000104e-05
1.0001045e-05
1.0001031e-05
1.0000931e-05
1.0000703e-05
1.0000358e-05
1.0000084e-05
0.00092292092
0.0011921603
0.00057964362
5.9024818e-05
1.1262393e-05
1.0572671e-05
1.0237963e-05
1.0157187e-05
1.0064677e-05
1.0050712e-05
1.0019866e-05
1.0020818e-05
1.0009547e-05
1.0010704e-05
1.000708e-05
1.0006069e-05
1.0004472e-05
1.0003531e-05
1.0002713e-05
1.0002168e-05
1.0001744e-05
1.0001453e-05
1.0001303e-05
1.0001148e-05
1.0000966e-05
1.0000798e-05
1.000065e-05
1.000052e-05
1.0000412e-05
1.0000328e-05
1.0000283e-05
1.0000279e-05
1.0000275e-05
1.0000314e-05
1.0000391e-05
1.0000392e-05
1.0000441e-05
1.0000591e-05
1.0000759e-05
1.0000877e-05
1.0000974e-05
1.0001011e-05
1.0001045e-05
1.0001048e-05
1.0001057e-05
1.0001043e-05
1.0000937e-05
1.0000697e-05
1.0000355e-05
1.000008e-05
0.00091674748
0.0011309948
0.00049878364
4.6456336e-05
1.1119243e-05
1.0546889e-05
1.0226411e-05
1.0149195e-05
1.0061203e-05
1.0048019e-05
1.001894e-05
1.0019862e-05
1.0009463e-05
1.0010356e-05
1.0006985e-05
1.0005925e-05
1.0004406e-05
1.0003477e-05
1.0002689e-05
1.0002155e-05
1.0001744e-05
1.0001457e-05
1.0001299e-05
1.0001141e-05
1.0000961e-05
1.0000795e-05
1.0000645e-05
1.0000515e-05
1.0000409e-05
1.0000326e-05
1.0000281e-05
1.0000277e-05
1.0000273e-05
1.0000309e-05
1.0000383e-05
1.0000381e-05
1.0000435e-05
1.0000586e-05
1.0000754e-05
1.0000875e-05
1.0000977e-05
1.0001013e-05
1.0001042e-05
1.0001055e-05
1.0001068e-05
1.0001052e-05
1.0000939e-05
1.0000691e-05
1.0000352e-05
1.0000078e-05
0.00091022862
0.0010607423
0.00042610082
3.7047275e-05
1.1016276e-05
1.0521504e-05
1.0215048e-05
1.0141356e-05
1.0057817e-05
1.0045404e-05
1.0018065e-05
1.0018949e-05
1.00094e-05
1.0010025e-05
1.000689e-05
1.0005789e-05
1.0004342e-05
1.0003426e-05
1.0002664e-05
1.0002143e-05
1.0001743e-05
1.0001462e-05
1.0001296e-05
1.0001136e-05
1.0000959e-05
1.0000792e-05
1.0000639e-05
1.0000509e-05
1.0000405e-05
1.0000324e-05
1.0000279e-05
1.0000274e-05
1.0000271e-05
1.0000303e-05
1.0000375e-05
1.000037e-05
1.0000428e-05
1.0000581e-05
1.0000753e-05
1.0000872e-05
1.0000975e-05
1.0001014e-05
1.0001045e-05
1.0001062e-05
1.0001078e-05
1.000106e-05
1.0000938e-05
1.0000685e-05
1.0000349e-05
1.0000075e-05
0.00090381683
0.00099012025
0.00036253767
3.0107286e-05
1.0938213e-05
1.0496473e-05
1.0203882e-05
1.0133683e-05
1.0054526e-05
1.0042876e-05
1.0017242e-05
1.001808e-05
1.0009359e-05
1.000971e-05
1.0006797e-05
1.000566e-05
1.0004279e-05
1.0003377e-05
1.000264e-05
1.000213e-05
1.0001742e-05
1.0001467e-05
1.0001293e-05
1.0001134e-05
1.0000958e-05
1.0000788e-05
1.0000631e-05
1.0000503e-05
1.0000401e-05
1.0000322e-05
1.0000277e-05
1.0000272e-05
1.0000269e-05
1.0000298e-05
1.0000366e-05
1.0000361e-05
1.0000421e-05
1.0000575e-05
1.0000753e-05
1.0000873e-05
1.0000953e-05
1.0001014e-05
1.0001048e-05
1.0001069e-05
1.0001087e-05
1.0001067e-05
1.0000936e-05
1.000068e-05
1.0000346e-05
1.0000071e-05
0.00089715177
0.00091497286
0.00030764735
2.5055742e-05
1.0875631e-05
1.0471859e-05
1.0192938e-05
1.0126202e-05
1.0051339e-05
1.0040442e-05
1.0016476e-05
1.0017257e-05
1.0009342e-05
1.0009412e-05
1.0006702e-05
1.0005539e-05
1.0004217e-05
1.0003329e-05
1.0002615e-05
1.0002116e-05
1.0001741e-05
1.0001474e-05
1.0001292e-05
1.0001133e-05
1.0000957e-05
1.0000781e-05
1.0000624e-05
1.0000496e-05
1.0000397e-05
1.000032e-05
1.0000276e-05
1.0000269e-05
1.0000268e-05
1.0000293e-05
1.0000357e-05
1.0000352e-05
1.0000414e-05
1.0000568e-05
1.0000751e-05
1.0000879e-05
1.0000957e-05
1.0001014e-05
1.0001051e-05
1.0001076e-05
1.0001094e-05
1.0001074e-05
1.0000933e-05
1.0000675e-05
1.0000342e-05
1.0000066e-05
0.00088990207
0.00083826157
0.00026130804
2.1425174e-05
1.082198e-05
1.0447691e-05
1.0182228e-05
1.0118919e-05
1.004826e-05
1.0038106e-05
1.0015766e-05
1.0016482e-05
1.0009331e-05
1.0009125e-05
1.0006606e-05
1.0005423e-05
1.0004156e-05
1.0003283e-05
1.0002589e-05
1.0002102e-05
1.0001739e-05
1.0001483e-05
1.0001293e-05
1.0001135e-05
1.0000955e-05
1.0000773e-05
1.0000616e-05
1.000049e-05
1.0000392e-05
1.0000318e-05
1.0000273e-05
1.0000266e-05
1.0000268e-05
1.0000288e-05
1.0000349e-05
1.0000343e-05
1.0000406e-05
1.000056e-05
1.0000746e-05
1.000088e-05
1.0000958e-05
1.0001013e-05
1.0001055e-05
1.0001083e-05
1.0001101e-05
1.000108e-05
1.0000931e-05
1.0000671e-05
1.0000339e-05
1.0000061e-05
0.00088255291
0.00075871296
0.00022280661
1.8816772e-05
1.0773719e-05
1.0423974e-05
1.0171752e-05
1.0111833e-05
1.0045293e-05
1.0035869e-05
1.0015115e-05
1.0015752e-05
1.0009301e-05
1.0008809e-05
1.000651e-05
1.0005315e-05
1.0004097e-05
1.0003237e-05
1.0002563e-05
1.0002087e-05
1.0001737e-05
1.0001489e-05
1.0001297e-05
1.0001137e-05
1.000095e-05
1.0000765e-05
1.0000608e-05
1.0000484e-05
1.0000388e-05
1.0000316e-05
1.0000271e-05
1.0000263e-05
1.0000268e-05
1.0000284e-05
1.000034e-05
1.0000333e-05
1.0000397e-05
1.0000551e-05
1.0000738e-05
1.000088e-05
1.000096e-05
1.0001014e-05
1.0001058e-05
1.000109e-05
1.0001108e-05
1.0001085e-05
1.0000929e-05
1.0000666e-05
1.0000335e-05
1.0000058e-05
0.00087656031
0.00069531085
0.00019164148
1.6923721e-05
1.0728981e-05
1.0400702e-05
1.0161511e-05
1.0104951e-05
1.0042444e-05
1.0033737e-05
1.0014524e-05
1.0015069e-05
1.0009254e-05
1.0008539e-05
1.0006413e-05
1.0005211e-05
1.0004037e-05
1.0003192e-05
1.0002534e-05
1.0002071e-05
1.0001734e-05
1.0001495e-05
1.0001305e-05
1.000114e-05
1.0000943e-05
1.0000756e-05
1.00006e-05
1.0000477e-05
1.0000384e-05
1.0000313e-05
1.0000269e-05
1.000026e-05
1.0000266e-05
1.000028e-05
1.000033e-05
1.0000324e-05
1.0000388e-05
1.0000542e-05
1.0000728e-05
1.0000872e-05
1.0000963e-05
1.0001016e-05
1.0001057e-05
1.0001098e-05
1.0001115e-05
1.000109e-05
1.0000927e-05
1.0000661e-05
1.0000332e-05
1.0000055e-05
0.0008718385
0.00064480673
0.00016603012
1.5525876e-05
1.0686649e-05
1.0377907e-05
1.0151522e-05
1.0098285e-05
1.0039719e-05
1.0031715e-05
1.0013994e-05
1.0014434e-05
1.0009193e-05
1.0008317e-05
1.0006316e-05
1.0005113e-05
1.0003978e-05
1.0003145e-05
1.0002505e-05
1.0002055e-05
1.0001731e-05
1.0001499e-05
1.0001312e-05
1.0001139e-05
1.0000935e-05
1.0000747e-05
1.0000592e-05
1.000047e-05
1.0000379e-05
1.0000311e-05
1.0000268e-05
1.0000257e-05
1.0000264e-05
1.0000275e-05
1.0000318e-05
1.0000313e-05
1.0000378e-05
1.0000533e-05
1.0000718e-05
1.0000865e-05
1.0000964e-05
1.0001019e-05
1.0001054e-05
1.0001106e-05
1.0001121e-05
1.0001095e-05
1.0000926e-05
1.0000656e-05
1.0000329e-05
1.0000054e-05
0.00086827143
0.00060096161
0.00014397191
1.4455963e-05
1.0646082e-05
1.0355607e-05
1.0141793e-05
1.0091846e-05
1.0037124e-05
1.0029809e-05
1.0013525e-05
1.0013846e-05
1.0009119e-05
1.0008103e-05
1.000622e-05
1.0005018e-05
1.0003917e-05
1.0003098e-05
1.0002474e-05
1.0002037e-05
1.0001726e-05
1.0001499e-05
1.0001321e-05
1.0001134e-05
1.0000926e-05
1.0000738e-05
1.0000583e-05
1.0000464e-05
1.0000374e-05
1.0000308e-05
1.0000266e-05
1.0000254e-05
1.0000262e-05
1.0000271e-05
1.0000307e-05
1.00003e-05
1.0000365e-05
1.0000523e-05
1.0000707e-05
1.0000855e-05
1.0000961e-05
1.0001021e-05
1.0001058e-05
1.0001112e-05
1.0001126e-05
1.0001099e-05
1.0000924e-05
1.0000651e-05
1.0000325e-05
1.0000053e-05
0.000866197
0.00056461452
0.00012508921
1.3632697e-05
1.0606996e-05
1.0333857e-05
1.0132349e-05
1.0085652e-05
1.0034665e-05
1.0028023e-05
1.0013119e-05
1.0013304e-05
1.0009035e-05
1.0007905e-05
1.0006124e-05
1.0004927e-05
1.0003855e-05