/*--------------------------------*- C++ -*----------------------------------*\
  =========                 |
  \\      /  F ield         | OpenFOAM: The Open Source CFD Toolbox
   \\    /   O peration     | Website:  https://openfoam.org
    \\  /    A nd           | Version:  8
     \\/     M anipulation  |
\*---------------------------------------------------------------------------*/
FoamFile
{
    version     2.0;
    format      ascii;
    class       volScalarField;
    location    "0.0900078";
    object      p;
}
// * * * * * * * * * * * * * * * * * * * * * * * * * * * * * * * * * * * * * //

dimensions      [1 -1 -2 0 0 0 0];

internalField   nonuniform List<scalar> 
20000
(
76343.982
76357.155
76372.818
76394.421
76426.605
76465.549
76522.208
76582.745
76659.343
76755.184
76855.82
76998.247
77137.389
77340.175
77539.285
77820.707
78109.395
78496.227
78915.067
79448.334
80048.5
80778.481
81611.837
82595.983
83724.107
85030.709
86550.918
88196.713
89898.743
91563.561
93132.228
94546.872
95774.173
96805.144
97646.002
98314.996
98837.141
99242.012
99554.991
99799.462
99982.199
100135.75
100279.1
100415.8
100503.83
100545.96
100554.86
100388.64
100233.57
100195.09
75742.383
75755.745
75771.84
75793.491
75826.613
75865.286
75924.163
75986.086
76063.767
76162.014
76264.298
76410.991
76552.864
76762.121
76966.179
77257.157
77555.404
77957.229
78393.34
78948.659
79574.143
80333
81202.999
82236.053
83433.83
84842.28
86469.898
88179.784
89904.887
91599.778
93183.891
94602.52
95825.55
96848.339
97679.797
98340.714
98856.348
99256.961
99567.701
99810.083
99991.471
100145.11
100294.66
100433.28
100515.93
100550.16
100551.55
100366.37
100234.12
100194.44
75159.42
75172.324
75188.919
75211.086
75245.662
75285.012
75345.921
75409.62
75488.894
75590.321
75694.485
75845.965
75990.915
76207.193
76416.997
76718.542
77027.782
77445.534
77899.387
78476.391
79126.736
79916.973
80831.355
81928.714
83220.921
84751.571
86441.176
88181.787
89950.916
91671.69
93266.107
94682.857
95896.179
96906.141
97724.518
98374.329
98881.19
99275.912
99583.183
99822.609
100001.98
100155.66
100312.26
100449.56
100527.26
100557.31
100542.15
100350.02
100234.34
100193.6
74606.243
74618.82
74635.856
74658.871
74695.463
74735.959
74798.826
74864.25
74944.959
75049.647
75155.869
75312.591
75461.107
75685.346
75901.997
76215.671
76537.277
76971.98
77443.567
78042.141
78719.328
79548.491
80522.441
81706.801
83116.953
84718.78
86437.453
88231.929
90041.576
91783.616
93381.922
94790.139
95987.979
96980.244
97781.64
98417.15
98912.791
99299.761
99602.071
99837.418
100013.99
100167.73
100330.44
100464.04
100537.79
100565.77
100527.08
100340.01
100234.33
100192.83
74091.416
74105.653
74123.086
74146.56
74184.671
74225.945
74290.566
74358.016
74440.525
74549.13
74657.964
74820.746
74973.622
75206.985
75431.664
75758.525
76093.133
76544.894
77035.048
77657.625
78368.335
79250.902
80307.69
81598.059
83077.817
84714.284
86485.609
88333.199
90178.213
91934.114
93529.048
94922.122
96098.829
97068.779
97849.576
98467.878
98950.103
99327.705
99623.793
99854.118
100027.47
100181.63
100348.71
100477.66
100547.8
100574.06
100508.78
100331.36
100233.41
100192.41
73618.25
73633.946
73652.102
73676.946
73717.761
73760.832
73828.138
73898.671
73983.628
74096.819
74208.789
74378.449
74536.513
74780.078
75013.516
75353.853
75701.348
76170.793
76682.97
77337.023
78095.268
79055.91
80203.88
81556.666
83070.974
84762.086
86591.673
88488.362
90360.947
92122.97
93706.931
95078.119
96228.106
97171.274
97927.993
98526.323
98993.032
99359.703
99648.296
99872.645
100042.55
100197.83
100367.08
100490.16
100556.48
100581.14
100489.44
100323.32
100231.72
100192.17
73201.825
73218.758
73237.181
73263.033
73305.994
73350.384
73419.774
73493.128
73580.386
73698.466
73814.056
73991.568
74155.62
74410.043
74652.288
75005.992
75366.971
75856.491
76398.662
77097.848
77929.426
78964.15
80165.119
81548.83
83116.028
84871.54
86758.564
88696.766
90588.751
92348.443
93913.691
95256.393
96374.312
97286.519
98015.951
98591.789
99041.077
99395.393
99675.296
99892.789
100059.29
100216.82
100385.77
100501.71
100563.43
100586.18
100470.9
100315.3
100229.57
100191.98
72835.451
72854.239
72873.093
72900.205
72945.927
72992.276
73064.428
73141.604
73232.157
73356.464
73476.867
73663.29
73833.529
74098.71
74349.787
74718.031
75096.741
75613.39
76198.22
76963.404
77854.299
78931.683
80158.257
81592.41
83225.505
85045.668
86985.432
88957.497
90859.976
92608.693
94147.489
95455.281
96536.056
97413.427
98112.628
98663.688
99093.832
99434.497
99704.555
99914.367
100077.68
100238.99
100404.84
100512.44
100568.74
100588.66
100453.49
100307.48
100227.19
100191.87
72523.283
72544.427
72564.39
72592.932
72641.552
72690.311
72765.551
72847.143
72941.588
73072.924
73198.415
73393.643
73569.473
73845.802
74108.276
74495.717
74901.523
75463.693
76098.64
76904.952
77829.654
78927.379
80203.426
81701.06
83401.905
85283.881
87270.751
89268.255
91172.103
92901.118
94405.914
95672.706
96711.646
97550.679
98217.028
98741.296
99150.79
99476.671
99735.795
99937.178
100097.56
100264.21
100424.24
100522.68
100572.95
100589.72
100437.32
100299.98
100224.8
100191.78
72268.896
72290.588
72312.325
72342.662
72394.426
72445.954
72524.48
72610.719
72708.799
72846.558
72975.898
73179.646
73362.641
73653.822
73934.906
74354.964
74797.528
75395.082
76058.908
76887.141
77830.365
78977.087
80313.227
81877.318
83644.948
85584.85
87612.189
89626.433
91522.303
93222.963
94686.474
95906.546
96899.366
97696.944
98328.147
98823.879
99211.436
99521.572
99768.785
99961.062
100118.7
100291.23
100444.08
100533.68
100576.65
100589.97
100422.45
100292.95
100222.49
100191.56
72073.065
72095.707
72118.94
72150.981
72205.808
72259.98
72341.418
72431.91
72532.571
72675.352
72807.481
73022.569
73221.553
73538.539
73843.336
74289.183
74753.357
75371.982
76049.26
76900.157
77888.901
79089.649
80489.409
82120.275
83952.678
85945.886
88006.527
90028.488
91907.073
93570.974
94986.334
96154.455
97097.348
97850.788
98444.91
98910.652
99275.211
99568.82
99803.341
99985.919
100140.8
100318.19
100464.02
100546.16
100580.73
100587.75
100408.79
100286.41
100220.3
100191.27
71928.963
71953.055
71978.257
72012.536
72070.813
72127.776
72211.664
72306.213
72410.847
72563.68
72707.13
72940.687
73152.326
73486.516
73804.388
74266.067
74740.159
75370.466
76077.041
76968.968
78007.733
79266.636
80730.986
82428.209
84322.872
86364.229
88450.441
90470.868
92322.89
93941.913
95302.695
96414.119
97303.756
98010.799
98566.253
99000.832
99341.548
99617.986
99839.307
100011.74
100163.7
100344.01
100482.82
100558.82
100587.58
100579.2
100396.2
100280.27
100218.22
100190.97
71833.47
71858.811
71885.571
71921.581
71982.94
72042.633
72130.756
72232.622
72344.89
72509.546
72661.654
72907.712
73124.57
73469.048
73792.383
74263.063
74754.988
75415.155
76158.74
77095.387
78187.762
79506.008
81035.561
82798.368
84752.367
86836.206
88939.856
90949.379
92765.75
94332.219
95632.551
96683.105
97516.685
98175.526
98691.092
99093.622
99409.868
99668.59
99876.311
100038.59
100187.45
100368.33
100499.93
100570.67
100596.65
100564.49
100384.45
100274.39
100216.21
100190.69
71774.105
71800.883
71829.462
71867.81
71933.265
71997.263
72090.556
72199.567
72316.732
72489.88
72645.327
72897.929
73116.562
73468.906
73805.029
74298.712
74817.695
75511.316
76295.499
77279.426
78426.748
79805.725
81400.863
83228.341
85238.303
87358.429
89470.913
91460.017
93231.838
94738.499
95973.046
96959.1
97734.325
98343.59
98818.386
99188.248
99479.608
99720.268
99914.053
100066.48
100212.35
100391.36
100515.35
100581.23
100605.29
100545.96
100372.7
100268.6
100214.24
100190.44
71743.146
71771.716
71802.549
71843.513
71912.859
71980.335
72076.319
72189.465
72307.38
72485.067
72642.263
72904.632
73134.189
73506.278
73861.855
74381.599
74930.203
75659.484
76485.994
77518.427
78722.264
80162.94
81824.109
83715.035
85777.184
87926.752
90039.104
91998.259
93716.997
95157.155
96321.209
97239.746
97954.859
98513.616
98947.109
99283.946
99550.2
99772.605
99952.376
100095.45
100238.91
100413.53
100529.12
100589.87
100611.82
100525.57
100360.84
100262.88
100212.29
100190.19
71732.835
71762.979
71795.584
71838.302
71910.93
71981.454
72079.912
72198.059
72319.952
72507.729
72672.101
72950.075
73194.873
73588.836
73965.291
74512.007
75091.45
75857.322
76727.703
77810.124
79071.9
80575.502
82303.122
84256.047
86365.99
88537.505
90640.317
92559.963
94217.398
95584.871
96674.3
97522.868
98176.617
98684.336
99076.307
99379.998
99621.102
99825.202
99991.03
100125.49
100267.64
100435.21
100541.48
100596.41
100615.03
100505.24
100349.09
100257.27
100210.37
100189.93
71754.061
71786.347
71821.493
71866.867
71943.995
72018.678
72121.127
72246.783
72375.081
72575.358
72748.847
73043.842
73301.383
73715.955
74113.253
74687.276
75298.582
76102.232
77017.978
78151.853
79473.158
81040.981
82835.361
84848.436
87001.057
89186.405
91269.928
93140.637
94728.995
96018.213
97029.541
97806.309
98397.965
98854.52
99205.056
99475.721
99691.794
99877.666
100029.78
100156.47
100298.61
100456.67
100552.91
100601.39
100616.45
100485.26
100337.64
100251.83
100208.46
100189.66
71816.426
71850.837
71888.566
71936.374
72017.427
72096.146
72203.475
72337.991
72472.094
72684.314
72866.418
73177.726
73447.871
73883.075
74302.089
74904.31
75548.947
76391.691
77354.533
78541.608
79924.253
81557.774
83419.1
85489.937
87679.288
89869.627
91923.766
93736.193
95248.094
96454.066
97384.449
98088.15
98617.446
99023.063
99332.517
99570.495
99761.807
99929.634
100068.37
100188.14
100330.73
100478.43
100564.73
100605.59
100616.89
100465.77
100326.6
100246.6
100206.57
100189.28
71913.954
71950.622
71991.115
72041.533
72126.987
72210.666
72322.35
72465.2
72604.472
72829.037
73018.449
73346.051
73630.106
74087.122
74529.137
75160.709
75840.202
76723.455
77735.239
78977.41
80423.408
82124.103
84052.269
86177.697
88396.941
90582.681
92597.15
94342.167
95770.783
96889.251
97736.603
98366.562
98833.662
99188.918
99457.897
99663.744
99830.715
99980.77
100106.52
100220.02
100362.52
100500.21
100577.67
100610.27
100616.62
100446.98
100316.07
100241.63
100204.68
100188.78
72040.585
72079.753
72123.382
72176.895
72267.366
72356.177
72471.567
72622.693
72766.569
73004.027
73202.011
73547.178
73846.13
74325.957
74792.34
75454.316
76170.318
77095.711
78158.553
79458.054
80969.649
82739.045
84733.504
86909.476
89150.75
91321.556
93285.812
94954.48
96293.508
97320.988
98083.971
98640.005
99045.401
99351.193
99580.516
99754.943
99898.144
100030.79
100144
100251.62
100392.9
100520.85
100590.77
100617.15
100610.49
100429.21
100306.16
100236.91
100202.8
100188.13
72192.867
72234.566
72281.317
72337.772
72432.842
72527.042
72646.497
72807.386
72956.842
73208.556
73415.909
73779.547
74094.313
74597.809
75089.835
75783.396
76537.633
77506.956
78623.176
79982.463
81562.01
83401.431
85460.944
87682.318
89936.702
92081.614
93984.973
95568.719
96812.633
97746.613
98424.651
98907.044
99251.54
99509.084
99699.799
99843.59
99963.728
100079.45
100180.63
100282.59
100421.39
100539.59
100602.79
100625.88
100597.05
100412.7
100296.9
100232.44
100200.92
100187.34
72368.893
72413.505
72463.889
72523.604
72623.442
72724.061
72847.838
73020.28
73175.308
73441.917
73658.785
74041.659
74373.056
74900.958
75420.006
76146.356
76940.831
77956.209
79128.487
80550.307
82200.307
84110.769
86233.304
88493.695
90751.182
92858.558
94690.199
96180.911
97325.158
98164.06
98757.056
99166.445
99451.17
99661.958
99815.329
99929.23
100027.09
100126.58
100216.32
100312.88
100448.13
100556.08
100612.96
100633.63
100577.54
100397.59
100288.25
100228.22
100199.02
100186.38
72572.408
72619.668
72673.403
72736.056
72840.765
72947.646
73075.331
73259.463
73420.328
73702.322
73929.067
74331.734
74680.7
75233.841
75781.47
76542.121
77379.032
78442.872
79674.098
81161.41
82884.201
84866.221
87048.549
89340.303
91589.704
93647.344
95396.608
96787.112
97828.512
98571.538
99079.509
99416.9
99643.514
99809.256
99926.756
100011.49
100087.81
100172.03
100251.09
100342.8
100473.63
100570.31
100620.85
100638
100554.93
100383.08
100280.13
100224.23
100197.1
100185.25
72794.66
72845.199
72903.147
72969.8
73079.961
73194.28
73326.419
73522.938
73689.518
73988.11
74225.031
74648.251
75015.839
75595.289
76173.294
76969.914
77851.807
78966.894
80260.292
81816.213
83614.023
85667.391
87905.083
90219.064
92448.071
94443.291
96099.944
97384.484
98321.181
98967.674
99390.334
99657.128
99828.029
99950.504
100033.69
100090.19
100145.55
100215.66
100285.01
100372.85
100498.4
100583.34
100626.63
100640.06
100531.75
100369.16
100272.57
100220.5
100195.16
100183.93
73040.956
73094.727
73156.948
73227.464
73342.673
73464.704
73600.931
73809.985
73982.052
74297.574
74545.457
74989.923
75377.554
75984.527
76594.944
77429.508
78359.193
79528.583
80887.534
82515.163
84389.774
86513.302
88800.381
91125.937
93321.207
95241.225
96796.207
97971.023
98801.948
99350.623
99687.705
99885.877
100004.21
100085.21
100135.48
100165.36
100200.21
100257.32
100318.11
100403.3
100522.45
100596.39
100631.37
100640.93
100509.09
100356.03
100265.63
100217.03
100193.18
100182.39
73307.848
73364.782
73431.177
73505.431
73625.467
73755.743
73896.26
74118.541
74295.909
74629.379
74889.288
75356.134
75765.376
76401.212
77046.271
77921.008
78901.671
80128.768
81556.817
83259.201
85211.914
87403.264
89732.134
92057.02
94204.321
96036.678
97482.869
98545.873
99269.113
99717.515
99970.41
100102.62
100171.55
100212.98
100231.31
100237.04
100252.17
100296.82
100350.34
100433.84
100545.02
100609.9
100637.07
100641.19
100487.68
100343.93
100259.37
100213.8
100191.14
100180.63
73590.413
73651.068
73722.441
73801.302
73926.59
74066.004
74211.14
74447.333
74631.251
74983.507
75256.333
75746.647
76179.133
76845.298
77527.513
78445.056
79480.148
80768.519
82269.181
84049.066
86080.376
88335.722
90696.936
93007.364
95091.932
96825.415
98158.288
99107.395
99718.05
100065.81
100237.4
100307.91
100329.2
100333.63
100320.79
100304.73
100302.25
100334.04
100381.52
100463.03
100565.81
100623.42
100645.45
100639.19
100468.06
100333.06
100253.79
100210.78
100189
100178.64
73893.585
73957.983
74034.388
74117.627
74247.282
74396.091
74545.657
74796.492
74987.736
75359.376
75646.433
76161.294
76618.953
77317.115
78039.362
79002.655
80095.9
81449.27
83026.021
84885.857
86995.331
89309.189
91691.379
93972.147
95979.26
97604.819
98821.57
99650.865
100145.11
100393.48
100488.81
100502.15
100477.81
100447.19
100404.48
100366.85
100350.91
100369.1
100411.47
100490.2
100584.23
100636.3
100655.57
100632.1
100450.56
100323.52
100248.85
100207.92
100186.76
100176.4
74210.367
74279.429
74362.168
74451.038
74585.026
74744.366
74898.954
75165.646
75364.973
75757.381
76059.644
76600.281
77085.251
77817.454
78582.954
79595.282
80750.45
82172.508
83828.606
85770.292
87956.176
90321.071
92710.815
94945.703
96861.694
98373.195
99469.414
100170.62
100546.6
100700.27
100727.21
100685.06
100617.14
100553.34
100482.22
100424.02
100397.15
100402.44
100440.06
100515.53
100600.46
100647.54
100664.93
100620.37
100435.44
100315.28
100244.46
100205.17
100184.39
100173.95
74546.697
74619.744
74707.686
74803.212
74941.516
75112.115
75271.897
75555.293
75763.341
76177.53
76496.349
77064.049
77578.981
78347.579
79159.799
80224.573
81445.493
82939.941
84678.464
86703.295
88962.307
91368.647
93750.527
95922.945
97736.151
99129.466
100095.37
100662.02
100921.01
100990.68
100951.82
100855.95
100747.2
100652.11
100554.2
100476.82
100439.65
100434.68
100467.24
100539.68
100614.95
100655.8
100670.1
100605.02
100422.58
100308.2
100240.54
100202.51
100181.93
100171.29
74901.188
74978.47
75071.262
75173.783
75316.491
75499.186
75664.214
75965.262
76182.872
76619.836
76957.243
77553.727
78101.579
78909.103
79771.633
80892.301
82182.758
83753.183
85576.928
87685.132
90012.121
92447.799
94804.816
96898.683
98600.344
99869.204
100692.51
101121.37
101272.18
101265.39
101161.4
101014.79
100868.05
100743.59
100620.66
100525.74
100477.91
100465.88
100492.99
100562.97
100627.77
100661.55
100672.55
100587.3
100411.36
100302.03
100237.07
100199.94
100179.37
100168.44
75272.651
75355.155
75453.521
75563.345
75710.427
75905.965
76076.152
76395.863
76624.265
77085.208
77443.778
78071.025
78654.827
79503.806
80420.196
81600.313
82964.099
84614.116
86525.503
88716.165
91103.726
93554.262
95868.302
97869.056
99452.984
100584.6
101255.29
101548.65
101605.73
101521.8
101355.88
101161.76
100979.85
100827.91
100681.63
100570.46
100512.8
100495.76
100517.26
100585.32
100639.63
100666.16
100673.57
100568.91
100400.76
100296.48
100234.05
100197.58
100176.79
100165.4
75660.523
75748.359
75851.796
75969.662
76121.557
76331.969
76508.202
76848.177
77089.066
77575.855
77957.884
78617.763
79240.418
80133.414
81107.308
82350.538
83791.418
85524.533
87525.341
89795.818
92233.931
94682.467
96935.276
98830.776
100289.86
101267.11
101779.71
101950.54
101919.21
101759.68
101535.4
101297.11
101082.81
100905.23
100737.03
100611.05
100544.89
100524.13
100540.13
100606.09
100651.31
100671.06
100673.89
100550.13
100390.21
100291.17
100231.39
100195.6
100174.38
100162.16
76064.164
76158.304
76267.282
76394.582
76552.215
76778.754
76962.563
77324.66
77579.624
78094.175
78501.27
79195.307
79859.873
80799.626
81834.839
83144.983
84666.8
86486.452
88577.625
90923.255
93399.128
95826.994
98001.13
99781.972
101102.22
101910.49
102267.18
102331.03
102210.51
101979.17
101700.33
101421.18
101177.19
100975.68
100786.86
100647.71
100574.56
100550.96
100561.82
100624.31
100662.66
100678.18
100672.33
100530.92
100379.36
100285.68
100228.81
100194.03
100172.47
100158.74
76487.355
76588.705
76703.762
76842.041
77006.222
77250.422
77442.349
77827.506
78097.539
78640.764
79075.028
79804.815
80514.76
81504.397
82604.826
83985.795
85592.391
87501.724
89682.839
92096.293
94594.23
96981.719
99061.553
100719.54
101879.12
102509.79
102725.04
102687.41
102479.42
102180.62
101851.06
101534.36
101263.27
101039.43
100831.22
100680.72
100601.97
100576.21
100582.61
100639.6
100672.8
100686.49
100666.6
100511.43
100368.14
100279.75
100226
100192.87
100171.09
100155.15
76935.574
77044.576
77165.803
77315.826
77486.023
77748.418
77948.061
78356.73
78642.98
79215.621
79680.301
80447.937
81207.049
82249.809
83419.411
84875.3
86570.633
88572.331
90841.224
93312.216
95813.91
98141.321
100113.55
101634.39
102613.37
103065.73
103157.79
103017.39
102726.33
102364.57
101988.14
101637.1
101341.4
101096.66
100870.35
100710.35
100627.23
100599.83
100602.35
100652.74
100680.97
100692.43
100657.03
100491.96
100356.82
100273.65
100223.09
100191.93
100169.72
100151.47
77406.305
77523.611
77651.056
77813.446
77988.519
78270.139
78478.188
78911.916
79216.456
79820.419
80318.922
81126.827
81938.794
83038.043
84280.893
85816.069
87604.062
89699.822
92051.856
94566.716
97051.799
99300.332
101153.94
102514.58
103298.63
103585.86
103562.71
103320.89
102951.75
102531.63
102112.12
101729.89
101411.96
101147.64
100904.54
100736.85
100650.36
100621.65
100621.23
100664.06
100686.93
100695.34
100644.08
100473
100345.83
100267.69
100220.21
100190.94
100168.07
100147.83
77896.719
78023.292
78156.948
78332.384
78512.862
78815.789
79033.968
79495.021
79820.247
80457.828
80993.08
81843.494
82711.963
83871.314
85191.826
86811.011
88695.445
90885.537
93313.154
95854.924
98302.008
100454.25
102175.96
103350.04
103933.03
104077.11
103936.67
103598.41
103156.45
102682.52
102223.65
101813.26
101475.35
101192.67
100934.1
100760.54
100671.44
100641.52
100639.15
100673.87
100691.12
100696.57
100628.25
100455.08
100335.5
100262.05
100217.36
100189.78
100166.1
100144.31
78409.033
78545.816
78685.973
78875.99
79063.215
79389.167
79618.72
80108.847
80456.885
81129.764
81704.582
82599.584
83528.579
84752.278
86155.223
87863.374
89847.282
92129.88
94621.784
97170.634
99558.197
101598.85
103166.85
104133.07
104523.39
104536.98
104279.6
103850.63
103341.23
102817.98
102323.38
101887.77
101531.96
101231.93
100959.43
100781.68
100690.64
100659.34
100655.53
100682.9
100695.03
100696.96
100610.07
100438.59
100326.02
100256.78
100214.51
100188.41
100163.83
100140.89
78947.063
79094.91
79242.013
79447.884
79642.055
79992.486
80234.389
80755.109
81127.853
81837.129
82454.826
83397.004
84391.212
85684.125
87174.653
88976.656
91062.005
93432.421
95973.691
98507.523
100814.91
102729.8
104112.49
104858.19
105079.83
104961.41
104592.1
104078.51
103507.04
102938.87
102412.05
101953.97
101582.06
101265.4
100981.08
100800.42
100707.92
100675.04
100669.77
100691.04
100700.14
100695.73
100590.44
100423.61
100317.41
100251.89
100211.68
100186.79
100161.3
100137.51
79510.493
79670.39
79824.859
80048.135
80250.061
80626.735
80881.935
81434.479
81833.659
82580.839
83245.563
84238.514
85303.226
86670.791
88254.169
90154.39
92341.246
94791.107
97363.07
99858.589
102066.25
103834.65
105003.38
105530.52
105601.09
105349.79
104875.03
104283.09
103654.87
103046.04
102490.36
102012.32
101625.81
101293.01
100999.71
100816.79
100723.16
100688.74
100682.05
100697.84
100705.08
100690.71
100569.88
100409.93
100309.51
100247.38
100208.98
100184.9
100158.58
100134.17
80102.352
80275.148
80437.325
80679.501
80888.849
81292.535
81561.438
82147.046
82575.053
83362.73
84079.806
85128.005
86268.82
87716.68
89398.031
91400.016
93685.872
96202.823
98783.535
101217.32
103307.11
104898.48
105832.03
106159.79
106083.4
105702.78
105129.57
104465.59
103785.82
103140.43
102559.03
102063.24
101663.44
101315.74
101015.39
100830.78
100736.32
100700.74
100692.98
100703.04
100707.53
100682.07
100549.01
100397.07
100301.97
100243.1
100206.63
100182.72
100155.7
100130.89
80718.758
80906.862
81078.462
81340.341
81556.329
81988.293
82272.638
82894.15
83354.797
84186.767
84961.901
86070.167
87292.652
88826.569
90610.593
92716.3
95095.194
97662.523
100227.53
102576.46
104528.61
105907.03
106598.01
106750.02
106524.23
106021.35
105356.98
104627.26
103901
103222.93
102618.63
102107.11
101695.48
101334.73
101028.24
100842.56
100747.71
100711.27
100702.74
100707.39
100708.52
100670.32
100528.58
100384.67
100294.7
100239.01
100204.46
100180.28
100152.7
100127.69
81361.512
81565.48
81743.912
82025.464
82250.244
82715.47
83019.282
83680.311
84179.028
85057.855
85896.715
87069.901
88379.673
90005.385
91896.11
94105.245
96567.171
99164.114
101687.76
103929.33
105715.32
106850.78
107309.51
107297.96
106924.13
106306.89
105558.78
104769.49
104001.56
103294.32
102669.68
102144.54
101722.98
101350.23
101038.39
100852.49
100757.83
100720.55
100710.93
100712.06
100708.78
100656.05
100508.9
100372.77
100287.7
100235.01
100202.29
100177.58
100149.62
100124.59
82026.129
82246.795
82435.399
82744.631
82980.936
83483.106
83808.571
84511.183
85052.251
85981.002
86888.92
88132.341
89535.248
91258.29
93258.384
95567.417
98097.627
100699.75
103156.03
105268.48
106849.13
107723.14
107976.85
107798.6
107284.12
106560.94
105736.51
104893.62
104088.47
103355.21
102712.7
102176.45
101747.1
101359.46
101046.19
100861.09
100767.15
100729.06
100717.59
100715.06
100707.62
100639.9
100490.2
100361.44
100280.94
100231.02
100199.99
100174.67
100146.49
100121.61
82732.945
82972.687
83172.975
83508.867
83755
84295.154
84643.644
85389.801
85978.599
86960.64
87943.772
89263.302
90765.018
92590.344
94700.48
97101.9
99680.926
102261.21
104623.82
106580.18
107916.84
108530
108597.52
108252.25
107605.87
106785.33
105891.86
105000.98
104162.57
103406.22
102748.65
102204.03
101767.69
101363.99
101052.66
100868.99
100775.93
100736.78
100722.67
100716.4
100703.95
100622.73
100472.61
100350.72
100274.43
100227.02
100197.51
100171.59
100143.35
100118.76
83474.435
83735.707
83947.304
84313.445
84570.439
85152.243
85527.395
86320.477
86962.565
88002.554
89067.462
90469.127
92074.938
94006.316
96224.213
98705.615
101309.4
103839.31
106081.99
107844.93
108907.86
109282.42
109166.43
108659.9
107891.13
106981.93
106026.4
105092.63
104224.61
103448.39
102779.12
102228.28
101780.44
101365.92
101058.7
100876.73
100783.97
100742.93
100725.69
100716.86
100697.95
100605.01
100456.16
100340.58
100268.18
100223.05
100194.82
100168.37
100140.22
100116.05
84253.527
84539.04
84762.473
85163.561
85433.062
86059.999
86465.672
87309.055
88010.647
89113.396
90266.779
91756.387
93470.74
95510.173
97829.761
100373.63
102974.31
105424.62
107520.19
109043.61
109822.19
109983.34
109681.58
109023.36
108142.07
107152.72
106141.62
105169.59
104275.78
103483.57
102805.91
102248.85
101786.67
101366.48
101063.07
100884.12
100790.86
100747.36
100727.08
100716.96
100689.83
100587.05
100440.73
100330.95
100262.16
100219.26
100191.93
100165.05
100137.14
100113.49
85078.378
85390.617
85625.632
86065.365
86348.161
87023.235
87464.08
88362.154
89130.362
90300.56
91548.629
93131.715
94957.89
97104.708
99515.134
102098.51
104665.53
107006.01
108917.93
110162.8
110668.79
110628.13
110143.82
109344.65
108360.88
107299.53
106238.85
105233.21
104318.14
103513.97
102829.17
102261.52
101789.26
101365.52
101065.46
100889.65
100795.94
100749.92
100727.52
100716.16
100679.79
100569.07
100426.13
100321.81
100256.42
100215.62
100188.84
100161.68
100134.13
100111.08
85950.553
86293.081
86539.485
87022.841
87320.857
88047.751
88529.817
89487.421
90329.669
91571.717
92919.998
94601.468
96541.145
98791.148
101276.11
103871.16
106372.32
108572.25
110253.03
111194.93
111457.83
111211.84
110555.05
109626.28
108549.91
107424.18
106319.63
105285.66
104354.21
103540.14
102845.11
102267.92
101790.01
101363.12
101066.56
100892.57
100798.69
100751.14
100727.39
100713.93
100668.1
100551.33
100412.29
100313.12
100250.91
100212.07
100185.56
100158.31
100131.22
100108.84
86874.95
87252.641
87510.925
88043.844
88359.573
89142.564
89673.055
90691.236
91615.719
92934.347
94387.649
96171.752
98224.276
100568.59
103105.67
105680.27
108081.56
110104.98
111506.74
112146.19
112185.13
111735.02
110917.57
109870.8
108711.31
107528.38
106386.07
105329.66
104384.83
103558
102853.79
102270.81
101788.84
101359.61
101066.77
100893.85
100800.03
100751.57
100726.03
100710.16
100655.08
100534.02
100399.32
100304.88
100245.61
100208.57
100182.13
100154.94
100128.43
100106.75
87860.884
88278.562
88548.128
89136.554
89472.749
90315.749
90901.538
91982.612
92996.092
94395.892
95958.308
97848.046
100009.59
102433.55
104994.49
107513.54
109779.35
111579.36
112665.52
113030.3
112844.31
112199.55
111234.26
110080.96
108847.33
107614.33
106440.96
105366.69
104406.03
103567.85
102857.95
102271.76
101785.46
101355.01
101065.9
100894.4
100800.59
100751.34
100723.98
100704.83
100641.08
100517.2
100387.16
100297.05
100240.46
100205.06
100178.58
100151.54
100125.77
100104.83
88915.053
89378.831
89658.753
90309.002
90669.352
91575.358
92223.302
93369.492
94477.989
95963.636
97638.769
99635.536
101897.5
104379.56
106930.37
109356.45
111449.05
112970.18
113731.49
113845.48
113434.33
112607.99
111508.08
110259.38
108960.3
107684.81
106486.78
105393.88
104417.99
103572.7
102859.69
102270.74
101780.06
101349.39
101064.16
100894.53
100800.66
100750
100721.21
100697.96
100626.35
100500.93
100375.69
100289.56
100235.42
100201.52
100174.95
100148.16
100123.26
100103.07
90044.9
90562.236
90851.128
91569.998
91958.917
92929.09
93645.078
94858.674
96068.671
97645.809
99436.404
101538.09
103885.54
106396.88
108899.2
111192.21
113063.44
114260.73
114716.37
114585.45
113957.1
112963.57
111742.29
110408.84
109053.03
107743.04
106523.3
105410.11
104424.01
103574.67
102859.6
102267.4
101772.9
101342.96
101061.71
100893.88
100799.68
100747.65
100717.59
100689.66
100611.12
100485.25
100364.84
100282.36
100230.47
100197.92
100171.26
100144.86
100120.88
100101.48
91259.683
91838.648
92133.559
92926.734
93349.469
94383.286
95173.492
96457.972
97777.221
99452.195
101358.57
103557.56
105967.46
108471.99
110883.99
113001.64
114593.33
115446.23
115623.88
115246.69
114415.34
113269.77
111940.11
110532.27
109128.74
107790.78
106546.85
105418.57
104426.48
103574.43
102857.09
102261.97
101764.26
101335.96
101058.55
100892.24
100797.6
100744.29
100713.02
100680.07
100595.62
100470.21
100354.47
100275.4
100225.63
100194.23
100167.53
100141.69
100118.66
100100.05
92566.164
93215.149
93511.475
94382.716
94845.746
95942.493
96820.271
98180.502
99615.822
101393.62
103411.3
105691.75
108132.41
110588.13
112864.7
114756.73
116016.53
116536.33
116447.57
115831
114812.8
113530.48
112104.97
110633.18
109190.65
107825.37
106559.78
105422.48
104426.27
103571.54
102852.42
102254.74
101754.42
101328.55
101054.68
100889.64
100794.49
100739.9
100707.41
100669.36
100580.06
100455.8
100344.52
100268.65
100220.9
100190.46
100163.81
100138.64
100116.59
100098.8
93965.292
94694.419
94989.991
95942.302
96456.65
97619.98
98599.288
100042.65
101598.32
103479.62
105596.68
107933.37
110364.5
112724.78
114817.97
116424.15
117322.28
117538.72
117181.79
116341.33
115153.54
113749.56
112240.54
110715.36
109240.21
107846.84
106566.63
105423.05
104423.01
103566.34
102845.89
102246.01
101743.63
101320.85
101050.17
100886.12
100790.37
100734.49
100700.75
100657.74
100564.61
100442.02
100334.96
100262.1
100216.23
100186.6
100160.16
100135.72
100114.69
100097.71
95475.454
96288.312
96582.066
97616.269
98197.9
99436.31
100530.25
102062.45
103737.6
105715.64
107910.93
110268.55
112643.02
114857.49
116713.61
117975.93
118518.46
118446.2
117828.25
116781.95
115442.18
113931.26
112350.95
110781.98
109274.38
107858.89
106569.06
105420.24
104417.17
103559.22
102837.84
102236.07
101732.17
101312.98
101045.04
100881.73
100785.24
100728.04
100693.06
100645.43
100549.43
100428.84
100325.77
100255.71
100211.59
100182.64
100156.55
100132.94
100112.96
100096.79
97097.248
98001.282
98307.362
99427.962
100095.69
101416.8
102631.86
104254.31
106041.52
108101.19
110343.55
112677.45
114942.78
116957.65
118513.45
119397.33
119614.17
119251.87
118390.18
117157.67
115683.41
114080
112440.35
110833.29
109295.27
107864.87
106567.84
105414.46
104409.22
103550.58
102828.59
102225.21
101720.26
101305.01
101039.35
100876.47
100779.12
100720.58
100684.4
100632.62
100534.63
100416.25
100316.91
100249.45
100206.95
100178.58
100153.01
100130.32
100111.42
100096.05
98869.157
99873.989
100211.66
101419
102185.88
103580.07
104915.8
106625.39
108511.76
110628.98
112876.28
115133.75
117233.49