/*--------------------------------*- C++ -*----------------------------------*\
  =========                 |
  \\      /  F ield         | OpenFOAM: The Open Source CFD Toolbox
   \\    /   O peration     | Website:  https://openfoam.org
    \\  /    A nd           | Version:  8
     \\/     M anipulation  |
\*---------------------------------------------------------------------------*/
FoamFile
{
    version     2.0;
    format      ascii;
    class       surfaceScalarField;
    location    "0.0900078";
    object      phi;
}
// * * * * * * * * * * * * * * * * * * * * * * * * * * * * * * * * * * * * * //

dimensions      [1 0 -1 0 0 0 0];

internalField   nonuniform List<scalar> 
39600
(
0.00016262583
-0.0078566192
0.0077458923
0.00018261648
-0.011215129
0.011196448
0.0002076675
-0.014916863
0.014893644
0.00023806604
-0.019524031
0.019496158
0.00028025778
-0.025427738
0.025388669
0.00024138005
-0.032952663
0.032995311
-2.6094806e-05
-0.039889732
0.040161241
-0.0003655735
-0.048239646
0.048583931
-0.00076823514
-0.057376342
0.057785061
-0.0012532886
-0.069050908
0.069543247
-0.0018289142
-0.082401658
0.082985995
-0.0025229294
-0.098949163
0.099653608
-0.0033451246
-0.1182636
0.11909865
-0.0043344828
-0.14183341
0.14283816
-0.005507064
-0.16965976
0.17085145
-0.0069134757
-0.20332217
0.20475131
-0.0085813251
-0.24329849
0.24499429
-0.010574077
-0.29142276
0.29344797
-0.012935145
-0.3487583
0.35116004
-0.01574778
-0.41756614
0.42042864
-0.019084587
-0.4996784
0.50307647
-0.023056104
-0.5980052
0.60205157
-0.027774988
-0.71540395
0.72021381
-0.033386915
-0.85574747
0.86146989
-0.040065389
-1.0232359
1.0300494
-0.048055197
-1.2230612
1.231221
-0.057511059
-1.4610294
1.4706848
-0.068927512
-1.7446577
1.7562986
-0.082747208
-2.0820154
2.0960925
-0.099391502
-2.4834428
2.5003968
-0.11932157
-2.961809
2.9820908
-0.14305569
-3.5327359
3.5568376
-0.17108382
-4.2151948
4.2436273
-0.20394999
-5.0322377
5.0655557
-0.24226491
-6.0114473
6.0502646
-0.28666091
-7.1863672
7.231321
-0.33775967
-8.5957385
8.647474
-0.39611655
-10.287269
10.346358
-0.46208737
-12.317241
12.384076
-0.53559592
-14.754254
14.828781
-0.6159529
-17.679484
17.760994
-0.70117686
-21.191983
21.278644
-0.78763611
-25.409356
25.497591
-0.87053734
-30.468747
30.553441
-0.93797821
-36.541759
36.610797
-0.97107432
-43.836794
43.870761
-0.9485447
-52.602468
52.579299
-0.82161974
-63.146388
63.01619
-0.54712023
-75.832281
75.55489
-91.06
90.524442
6.2741037e-05
-0.0078790727
8.6115855e-05
-0.011238048
0.00011101157
-0.014940234
0.00013642935
-0.01954762
0.00017146535
-0.025459286
0.00010292308
-0.032880205
-0.00016102916
-0.039621261
-0.00048672347
-0.047908726
-0.0008706258
-0.056986106
-0.001334749
-0.068579241
-0.0018837416
-0.081843262
-0.0025458692
-0.098275828
-0.0033293552
-0.11746637
-0.0042725481
-0.14087373
-0.0053888839
-0.16852347
-0.0067283991
-0.20195849
-0.008313598
-0.24168419
-0.010208485
-0.28949207
-0.01245242
-0.34647097
-0.015129073
-0.4148371
-0.018306228
-0.49643734
-0.02209464
-0.59413941
-0.026595195
-0.71080954
-0.031949354
-0.85027987
-0.038327902
-1.0167196
-0.045964915
-1.2152538
-0.055064329
-1.4517312
-0.066157489
-1.7333418
-0.079671663
-2.068242
-0.095978779
-2.4668263
-0.11555329
-2.9418855
-0.13889271
-3.5090291
-0.166471
-4.1872127
-0.19881377
-4.9994458
-0.23651077
-5.97325
-0.28018417
-7.1421382
-0.33043154
-8.5448551
-0.3878108
-10.229159
-0.45268054
-12.251506
-0.52500771
-14.68091
-0.60412759
-17.599206
-0.68818184
-21.106487
-0.77403794
-25.321707
-0.85647761
-30.384651
-0.92408437
-36.472705
-0.95902669
-43.800409
-0.94177116
-52.621108
-0.82521091
-63.26605
-0.5635357
-76.096911
-91.571055
5.1461437e-05
-0.0078977976
7.3904963e-05
-0.011258831
9.9129023e-05
-0.014963069
0.00012486748
-0.019570296
0.00016115916
-0.025491768
7.90823e-05
-0.032794676
-0.00017760352
-0.039359086
-0.00049152184
-0.047589254
-0.00086197671
-0.056608732
-0.0013101637
-0.068122772
-0.0018401316
-0.081303316
-0.0024802501
-0.097623852
-0.0032365176
-0.11669558
-0.0041479445
-0.13994498
-0.0052249923
-0.1674253
-0.0065174485
-0.20064075
-0.0080450998
-0.24012561
-0.0098716319
-0.28762845
-0.01203527
-0.34426139
-0.014619919
-0.41219649
-0.017690758
-0.49329815
-0.021350408
-0.59039727
-0.025692703
-0.70636792
-0.030855284
-0.84499869
-0.037020662
-1.0104085
-0.044380965
-1.2077205
-0.053259698
-1.4426531
-0.064154138
-1.7222219
-0.07741708
-2.0547206
-0.093456494
-2.4504805
-0.11273401
-2.9222631
-0.13572302
-3.4856751
-0.16288096
-4.1596531
-0.19471945
-4.9671612
-0.2318137
-5.9356576
-0.27476563
-7.0986321
-0.32417492
-8.4948086
-0.38059937
-10.172003
-0.44441041
-12.186827
-0.51560677
-14.608697
-0.59356889
-17.520074
-0.67653317
-21.02206
-0.76184506
-25.23461
-0.84381251
-30.301113
-0.91180708
-36.403294
-0.94934734
-43.761331
-0.93632557
-52.636264
-0.83070473
-63.374536
-0.58261513
-76.34799
-92.056945
4.2401449e-05
-0.0079170188
6.5803315e-05
-0.011281048
9.2142462e-05
-0.014987536
0.00011882249
-0.019594091
0.00015516024
-0.025524354
6.0865882e-05
-0.032695695
-0.00018833022
-0.039105055
-0.00049131689
-0.047280083
-0.00084852466
-0.0562445
-0.0012812966
-0.067681407
-0.0017917419
-0.080782425
-0.0024091201
-0.096993994
-0.003137344
-0.11595217
-0.0040156484
-0.13904866
-0.0050520679
-0.1663669
-0.0062963031
-0.19937023
-0.0077665574
-0.23862315
-0.0095254368
-0.28583034
-0.011611573
-0.34212762
-0.014104619
-0.40964577
-0.017067265
-0.49026548
-0.020593441
-0.58678699
-0.024768438
-0.70209253
-0.029748446
-0.83989714
-0.035666737
-1.0043444
-0.042809259
-1.2004054
-0.051533992
-1.433733
-0.06221877
-1.7113124
-0.075255648
-2.0414257
-0.09105735
-2.4343751
-0.11006689
-2.9029128
-0.13273495
-3.4626446
-0.15950544
-4.1324837
-0.190874
-4.9353501
-0.22740982
-5.898627
-0.26969634
-7.0557943
-0.31833295
-8.4455361
-0.37387324
-10.115733
-0.43671308
-12.123119
-0.50688378
-14.537512
-0.58380547
-17.441972
-0.66583038
-20.938547
-0.75056624
-25.148137
-0.83231746
-30.217875
-0.90122601
-36.333006
-0.94148819
-43.719422
-0.93281346
-52.647428
-0.83803861
-63.472225
-0.60422656
-76.584812
-92.518525
3.7777662e-05
-0.0079358639
6.4533695e-05
-0.011302527
9.3076904e-05
-0.015011913
0.00012147911
-0.019617962
0.00015604645
-0.02555415
4.6652677e-05
-0.032581142
-0.00019433173
-0.038858716
-0.00048679956
-0.046981366
-0.00083029808
-0.055893503
-0.0012470497
-0.067255732
-0.0017376503
-0.08028113
-0.0023319876
-0.096386956
-0.0030315021
-0.11523717
-0.0038758553
-0.13818581
-0.0048708486
-0.16534934
-0.0060667292
-0.19814726
-0.0074806178
-0.23717623
-0.0091755608
-0.28409572
-0.011184113
-0.34007036
-0.01358348
-0.40718738
-0.016431846
-0.48734568
-0.019816277
-0.58331703
-0.023826779
-0.69798018
-0.028591769
-0.83501059
-0.03431725
-0.99847279
-0.041312634
-1.1932412
-0.049861447
-1.4249904
-0.060352946
-1.7005993
-0.07319174
-2.0283333
-0.088783847
-2.4184858
-0.10755293
-2.8838101
-0.1299308
-3.43991
-0.15634572
-4.1056754
-0.18728358
-4.9039754
-0.22329742
-5.8621236
-0.26496998
-7.0135744
-0.31289198
-8.3969806
-0.36762818
-10.060268
-0.42958818
-12.060294
-0.49884627
-14.467245
-0.57485916
-17.364763
-0.65608513
-20.855784
-0.74036741
-25.062159
-0.82216065
-30.134687
-0.89225569
-36.261637
-0.93545976
-43.674691
-0.93209466
-52.653612
-0.84740687
-63.559845
-0.6285284
-76.80664
-92.955879
2.7489211e-05
-0.0079560579
5.2128353e-05
-0.011325279
8.1036491e-05
-0.015038444
0.00011146358
-0.019645108
0.00014375599
-0.025582138
2.4105998e-05
-0.032456676
-0.00020600613
-0.038623311
-0.00048607458
-0.046694823
-0.00081514253
-0.055556932
-0.0012155821
-0.066846316
-0.0016860394
-0.079799812
-0.0022567716
-0.095803338
-0.0029270421
-0.11455119
-0.0037370497
-0.13735716
-0.004691068
-0.16437257
-0.0058398079
-0.19697131
-0.0071986511
-0.23578408
-0.0088309032
-0.28242312
-0.010764625
-0.3380874
-0.013066355
-0.40482639
-0.015794754
-0.48454562
-0.019022521
-0.58000415
-0.022850239
-0.69405263
-0.027447696
-0.83029225
-0.033040318
-0.99273525
-0.039872406
-1.1862402
-0.04825359
-1.4164167
-0.058577265
-1.6900553
-0.07124725
-2.015412
-0.086658076
-2.4027819
-0.10521579
-2.8649242
-0.12733222
-3.4174413
-0.15342352
-4.0791954
-0.18396489
-4.8730024
-0.21950203
-5.8261021
-0.26061785
-6.9719154
-0.30789181
-8.3490762
-0.36189705
-10.005537
-0.42307002
-11.99826
-0.49151774
-14.397795
-0.56675837
-17.288309
-0.64733684
-20.773597
-0.73131523
-24.976515
-0.81338386
-30.051319
-0.8849273
-36.188969
-0.93135093
-43.626834
-0.93392548
-52.654092
-0.85910486
-63.63761
-0.65564182
-77.013046
-93.368602
2.2311171e-05
-0.0079747752
4.8060934e-05
-0.011346858
7.8024127e-05
-0.015064771
0.00011088705
-0.019673686
0.00013710222
-0.025603493
7.5454629e-06
-0.032322023
-0.00021379974
-0.038396366
-0.00048359724
-0.046418535
-0.0007992234
-0.05523358
-0.001183671
-0.066452779
-0.001633627
-0.079338946
-0.0021803766
-0.095243731
-0.0028213084
-0.11389462
-0.0035978937
-0.13656198
-0.0045129231
-0.16343484
-0.0056161413
-0.19584088
-0.0069211957
-0.23444572
-0.0084922751
-0.28081199
-0.010344237
-0.33618619
-0.01255541
-0.4025564
-0.015139038
-0.48189172
-0.018208754
-0.57685097
-0.021888068
-0.69027671
-0.026364951
-0.82569756
-0.031809751
-0.98714588
-0.038483365
-1.1794018
-0.046716493
-1.4079963
-0.056898785
-1.6796588
-0.069427789
-2.0026392
-0.084686339
-2.3872393
-0.10306027
-2.8462314
-0.12494435
-3.3952129
-0.15074456
-4.0530143
-0.1809272
-4.8423957
-0.21603531
-5.7905166
-0.25663883
-6.9307743
-0.30332466
-8.3017641
-0.35668408
-9.9514543
-0.4171656
-11.936924
-0.48492311
-14.329044
-0.55951957
-17.212481
-0.63960342
-20.691815
-0.72347989
-24.890986
-0.8060917
-29.967489
-0.87920356
-36.114914
-0.92920859
-43.576269
-0.93801682
-52.648316
-0.87320408
-63.705339
-0.68565686
-77.203518
-93.756123
1.3488844e-05
-0.0079926767
3.7764097e-05
-0.011367677
6.852705e-05
-0.015091889
0.00010512724
-0.019706602
0.00012481729
-0.025618365
-1.0580506e-05
-0.032181723
-0.00022154053
-0.038179835
-0.00047954288
-0.04615404
-0.00078059254
-0.054924901
-0.0011481712
-0.066076236
-0.0015772589
-0.078899074
-0.0021006614
-0.094707643
-0.0027143754
-0.11326547
-0.0034603108
-0.13579767
-0.0043375358
-0.16253509
-0.005398331
-0.19475316
-0.0066484815
-0.23316279
-0.0081512094
-0.27926965
-0.0099202257
-0.33436964
-0.012002557
-0.4004168
-0.014466662
-0.47935834
-0.017414937
-0.57382023
-0.02099007
-0.68660702
-0.02532452
-0.82124703
-0.030618356
-0.98170847
-0.037151698
-1.1727052
-0.045259754
-1.3997029
-0.055327359
-1.6693797
-0.067744519
-1.9899817
-0.082877623
-2.3718274
-0.10109635
-2.8277001
-0.12277772
-3.3731929
-0.14831768
-4.0270994
-0.17817567
-4.81212
-0.21289584
-5.7553254
-0.25304637
-6.8900916
-0.29921879
-8.2549698
-0.35200482
-9.8979489
-0.41188972
-11.876191
-0.47907293
-14.260878
-0.55316564
-17.137141
-0.63292735
-20.610267
-0.71690123
-24.805359
-0.80028361
-29.88295
-0.87518162
-36.039167
-0.92910247
-43.521794
-0.94436778
-52.636031
-0.88992727
-63.762635
-0.71872466
-77.377628
-94.118264
7.8896742e-06
-0.0080094409
3.1081041e-05
-0.011387934
6.2858794e-05
-0.015119631
0.00010530118
-0.019745029
0.00011727385
-0.025625398
-2.0679281e-05
-0.032038892
-0.00022135265
-0.037973638
-0.00046761386
-0.045901424
-0.0007544253
-0.054630577
-0.0011061708
-0.065715703
-0.0015166695
-0.07847795
-0.0020201968
-0.094191624
-0.0026097154
-0.11266074
-0.003327195
-0.13506209
-0.0041637117
-0.16167639
-0.0051783875
-0.19371166
-0.0063742297
-0.23193472
-0.0077896408
-0.27781618
-0.009450367
-0.33266257
-0.01143855
-0.3983729
-0.013799936
-0.47692968
-0.01666944
-0.5708702
-0.020120696
-0.68306102
-0.024315078
-0.81694215
-0.029472368
-0.97641803
-0.035886846
-1.1661351
-0.043894311
-1.3915179
-0.053874062
-1.6591971
-0.066206896
-1.9774181
-0.081242827
-2.3565235
-0.099332945
-2.8093083
-0.12084032
-3.3513567
-0.14615256
-4.0014216
-0.17572829
-4.7821356
-0.21010486
-5.7204863
-0.24985832
-6.8498128
-0.29557649
-8.2086352
-0.34787354
-9.8449371
-0.40726849
-11.815956
-0.47398609
-14.193189
-0.54772433
-17.062147
-0.6274894
-20.528655
-0.71167008
-24.719529
-0.79596046
-29.797459
-0.87291568
-35.961433
-0.93109267
-43.46316
-0.95308418
-52.61692
-0.90934018
-63.809138
-0.75496665
-77.534878
-94.454323
4.1452007e-07
-0.008025211
2.3306926e-05
-0.011408062
5.5370846e-05
-0.015148214
0.00010433839
-0.019790274
0.00010724732
-0.025623752
-3.0217354e-05
-0.031896769
-0.00022080606
-0.037777749
-0.00045534124
-0.045660674
-0.00072850823
-0.054350104
-0.0010661657
-0.065369536
-0.0014619369
-0.078071844
-0.0019487145
-0.093692552
-0.002510183
-0.11208386
-0.0031931841
-0.13436112
-0.0039918153
-0.16085607
-0.0049497401
-0.19272835
-0.0060677659
-0.23078579
-0.0074054523
-0.27644156
-0.0089916517
-0.33103115
-0.010895114
-0.39641451
-0.013189437
-0.47456882
-0.015944101
-0.56803544
-0.019274171
-0.67963315
-0.023347206
-0.81275849
-0.028389605
-0.97124783
-0.034704044
-1.1596682
-0.042635145
-1.3834119
-0.052555053
-1.6490769
-0.064830908
-1.9649157
-0.079796566
-2.3412957
-0.097785415
-2.7910246
-0.11914709
-3.3296726
-0.14426366
-3.9759462
-0.17359106
-4.7524066
-0.20767448
-5.6859474
-0.24708041
-6.8098876
-0.29241853
-8.1626856
-0.34431397
-9.7923311
-0.4033162
-11.756121
-0.46969717
-14.125845
-0.5432148
-16.987372
-0.62323639
-20.446827
-0.70788593
-24.633214
-0.79320089
-29.710764
-0.87244057
-35.881358
-0.93525073
-43.399925
-0.96430013
-52.590625
-0.93161841
-63.844473
-0.79447347
-77.674857
-94.763628
-6.1971181e-06
-0.0080397242
1.5147524e-05
-0.011426757
4.6784102e-05
-0.015176535
0.00010232603
-0.019842139
9.4563089e-05
-0.025611695
-4.1160696e-05
-0.031756537
-0.00022429032
-0.037589629
-0.00044916063
-0.045429857
-0.00071077455
-0.054081386
-0.0010341392
-0.065037501
-0.0014135052
-0.077682109
-0.0018823049
-0.093211715
-0.0024084382
-0.11154347
-0.0030455841
-0.13370715
-0.0037928038
-0.16008821
-0.0046971943
-0.19179926
-0.0057649265
-0.22968806
-0.0070383775
-0.275132
-0.008567477
-0.32945789
-0.010404144
-0.39452477
-0.012596285
-0.47231273
-0.015243924
-0.56531105
-0.018462536
-0.67632056
-0.022432435
-0.80868187
-0.02737727
-0.96618108
-0.033610953
-1.1532906
-0.04149228
-1.3753647
-0.051379478
-1.6389991
-0.06362609
-1.9524531
-0.078547558
-2.3261236
-0.096461676
-2.7728272
-0.11770603
-3.3081163
-0.14265959
-3.9506439
-0.17178187
-4.7228923
-0.20562132
-5.6516614
-0.24474179
-6.7702555
-0.28976492
-8.117057
-0.34134675
-9.7400438
-0.40005665
-11.696586
-0.46622267
-14.058721
-0.53967483
-16.912664
-0.62004951
-20.364746
-0.70556661
-24.546085
-0.79237854
-29.622443
-0.87361426
-35.79914
-0.94165881
-43.332299
-0.97804444
-52.556833
-0.95687112
-63.868202
-0.8374893
-77.797024
-95.045945
-1.1572253e-05
-0.0080538215
9.2450725e-06
-0.01144512
4.1003178e-05
-0.015205237
0.00010390824
-0.01990147
8.5494948e-05
-0.025589255
-4.7329394e-05
-0.031619328
-0.0002234522
-0.0374084
-0.00044265753
-0.045204673
-0.00069631652
-0.053820751
-0.0010061569
-0.064719718
-0.0013546187
-0.077324065
-0.0017770685
-0.092778102
-0.0022700494
-0.11103667
-0.0028768264
-0.1330842
-0.0035927513
-0.15935227
-0.004451612
-0.19091675
-0.0054723834
-0.22863779
-0.0067068732
-0.27386222
-0.0081671007
-0.32795463
-0.0099172239
-0.39272274
-0.012016414
-0.47015078
-0.014563686
-0.56268837
-0.017683039
-0.6731098
-0.021561155
-0.80469839
-0.02643146
-0.96118917
-0.032611564
-1.1469689
-0.040466738
-1.3673462
-0.050348592
-1.6289301
-0.062593055
-1.9399971
-0.077496478
-2.3109756
-0.095361364
-2.754686
-0.11652093
-3.2866518
-0.14134814
-3.9254752
-0.17030474
-4.6935513
-0.20394515
-5.6175821
-0.24284106
-6.7308547
-0.28762185
-8.0716765
-0.3389752
-9.6879899
-0.39751043
-11.637231
-0.46357935
-13.991693
-0.53711426
-16.837874
-0.61798189
-20.282291
-0.70446019
-24.45813
-0.79300493
-29.532533
-0.87704161
-35.713669
-0.95030445
-43.260475
-0.9944648
-52.515135
-0.98522745
-63.879922
-0.88404508
-77.900948
-95.300785
-1.7591924e-05
-0.0080668025
2.0195707e-06
-0.011462427
3.244836e-05
-0.015232787
9.9973262e-05
-0.01996544
6.6759597e-05
-0.025552456
-6.7539814e-05
-0.031480795
-0.00023449875
-0.037236948
-0.0004402134
-0.044993543
-0.00066985973
-0.053584741
-0.00095483577
-0.064427184
-0.001278101
-0.07699153
-0.0016752889
-0.092370139
-0.0021523622
-0.11054639
-0.0027327979
-0.13248786
-0.0034162969
-0.15864914
-0.0042472792
-0.19006221
-0.0052243582
-0.22763212
-0.0063948148
-0.27265769
-0.0077836734
-0.32652454
-0.0094548192
-0.39100215
-0.011469461
-0.46807645
-0.013930181
-0.56015636
-0.016960987
-0.66999314
-0.020757274
-0.80080293
-0.025573479
-0.95625776
-0.03172922
-1.1406805
-0.039581963
-1.3593399
-0.04948564
-1.6188498
-0.061753593
-1.9275288
-0.07666751
-2.2958288
-0.094514231
-2.7365748
-0.1156185
-3.2652535
-0.14035342
-3.9004093
-0.16917999
-4.6643504
-0.20266748
-5.5836653
-0.24140126
-6.6916242
-0.28602075
-8.0264642
-0.33723129
-9.636085
-0.39568879
-11.57796
-0.4618152
-13.9246
-0.53558358
-16.762835
-0.61708989
-20.199313
-0.70468718
-24.369176
-0.79523815
-29.440687
-0.88272448
-35.624673
-0.96105435
-43.184057
-1.0136008
-52.465023
-1.016844
-63.879127
-0.93435464
-77.986149
-95.527648
-2.2687974e-05
-0.0080786711
-3.7459752e-06
-0.011479059
2.6621062e-05
-0.015260124
0.00010066521
-0.020036085
5.9258509e-05
-0.025507298
-6.6174149e-05
-0.031351526
-0.00021626248
-0.037082479
-0.00040496118
-0.044799564
-0.00062077174
-0.053362633
-0.00089202087
-0.06414853
-0.0012016233
-0.076672961
-0.0015882288
-0.091972829
-0.0020446716
-0.11007665
-0.0026087244
-0.13190814
-0.0032607821
-0.15797793
-0.0040468383
-0.18925348
-0.0049719476
-0.22667937
-0.0060840935
-0.27151256
-0.0074069281
-0.32516175
-0.0090060915
-0.38935474
-0.0109489
-0.4660754
-0.013332858
-0.55770232
-0.016288965
-0.6669532
-0.020018691
-0.79697506
-0.024796329
-0.95136642
-0.030950083
-1.1343957
-0.038831718
-1.3513072
-0.04878495
-1.6087227
-0.061105707
-1.915012
-0.076059885
-2.2806477
-0.093916323
-2.7184607
-0.1149885
-3.2438942
-0.13965691
-3.8754172
-0.16839392
-4.6352468
-0.20178078
-5.5498568
-0.24041718
-6.6524981
-0.28495723
-7.9813375
-0.33612356
-9.5842302
-0.39463363
-11.51864
-0.46093583
-13.857315
-0.53510369
-16.687361
-0.61742041
-20.115613
-0.70637924
-24.27897
-0.79927631
-29.346625
-0.89050936
-35.532079
-0.97442562
-43.10237
-1.035674
-52.40626
-1.0518136
-63.865418
-0.98860099
-78.052049
-95.725991
-2.627975e-05
-0.008091151
-5.275747e-06
-0.011498028
2.8127149e-05
-0.015290934
0.00010970374
-0.020114559
6.4675409e-05
-0.025458771
-5.2946354e-05
-0.031229975
-0.00019431942
-0.036936701
-0.00037412889
-0.044614413
-0.00058091106
-0.053149533
-0.00084665514
-0.063875444
-0.0011480122
-0.076362473
-0.0015279172
-0.091582353
-0.0019592541
-0.10963242
-0.0024877597
-0.13136449
-0.0031024845
-0.15734467
-0.0038475077
-0.18848641
-0.0047259894
-0.22577416
-0.0057821267
-0.27042478
-0.0070454085
-0.32386035
-0.0085839994
-0.38777038
-0.010456743
-0.4641476
-0.012766823
-0.55532622
-0.015660134
-0.66398139
-0.019350064
-0.79319315
-0.024112966
-0.94649708
-0.030287385
-1.1280989
-0.038229313
-1.3432237
-0.048262198
-1.5985261
-0.060667629
-1.9024214
-0.075683188
-2.2654165
-0.09356673
-2.700331
-0.11463227
-3.2225522
-0.1392681
-3.8504681
-0.16796137
-4.6061968
-0.20130367
-5.5161023
-0.23991195
-6.6134083
-0.28444473
-7.9362254
-0.33567551
-9.5323184
-0.3943547
-11.459159
-0.460983
-13.789683
-0.53571421
-16.611265
-0.61904978
-20.030952
-0.70964509
-24.18723
-0.80511431
-29.250151
-0.900471
-35.435719
-0.99043072
-43.014821
-1.0607095
-52.338469
-1.0902872
-63.838253
-1.0468754
-78.098132
-95.895135
-2.7518302e-05
-0.0081060217
-4.2590635e-06
-0.011519414
3.2039942e-05
-0.015324688
0.00011478884
-0.020194279
6.0569058e-05
-0.025401293
-5.5216588e-05
-0.031110486
-0.00019309801
-0.036794599
-0.00037158508
-0.044430822
-0.00057028381
-0.052944744
-0.00082089699
-0.063617778
-0.001104609
-0.076070036
-0.0014663108
-0.091210599
-0.0018707233
-0.10921549
-0.0023708303
-0.13084982
-0.0029538627
-0.1567436
-0.0036610309
-0.18775823
-0.0044956392
-0.22491381
-0.0055025396
-0.2693873
-0.0067145542
-0.32261125
-0.0081923206
-0.38624804
-0.0099960356
-0.46228996
-0.012242054
-0.55301548
-0.015086904
-0.66105931
-0.018756775
-0.78943247
-0.023537685
-0.94161089
-0.029767879
-1.1217481
-0.037796743
-1.3350553
-0.047940342
-1.5882221
-0.060450842
-1.8897299
-0.075542893
-2.2501144
-0.093473481
-2.6821607
-0.11456325
-3.2011928
-0.13920636
-3.8255188
-0.16790199
-4.5771522
-0.2012597
-5.4823402
-0.23989927
-6.5742943
-0.2845147
-7.8910374
-0.33591131
-9.4802482
-0.39488229
-11.399397
-0.46198651
-13.721578
-0.53747
-16.534371
-0.62202847
-19.945093
-0.71455719
-24.093638
-0.81279332
-29.151014
-0.9126997
-35.334953
-1.0090687
-42.9208
-1.0888443
-52.261151
-1.132381
-63.7971
-1.1094524
-78.123721
-96.034433
-3.0652018e-05
-0.0081211688
-6.7121642e-06
-0.011541629
3.2178915e-05
-0.015361117
0.00011621998
-0.020275388
5.7458897e-05
-0.02533951
-5.7812388e-05
-0.030991716
-0.00018941485
-0.036659021
-0.00036016372
-0.044255261
-0.00054659427
-0.052752556
-0.00078454261
-0.063373088
-0.0010509328
-0.075795316
-0.0013891107
-0.090862831
-0.0017749076
-0.1088177
-0.0022507972
-0.13035982
-0.0028046489
-0.15617254
-0.0034762034
-0.1870662
-0.0042695413
-0.22409562
-0.0052330662
-0.26839439
-0.0063969484
-0.32141195
-0.007814402
-0.38478827
-0.0095589831
-0.46049441
-0.011754963
-0.55075873
-0.014568372
-0.6581736
-0.018237069
-0.78567913
-0.023065199
-0.93668457
-0.029385019
-1.1153162
-0.037534171
-1.3267758
-0.047811558
-1.5777943
-0.060441401
-1.8769296
-0.075628839
-2.2347279
-0.093634168
-2.6639267
-0.1147791
-3.1797888
-0.13946722
-3.8005348
-0.16821211
-4.5480683
-0.20164136
-5.4485162
-0.24039024
-6.5350793
-0.28517544
-7.8456877
-0.33683598
-9.4279229
-0.3962222
-11.339227
-0.46395741
-13.652853
-0.54052284
-16.456384
-0.62643194
-19.857886
-0.72108943
-23.997912
-0.82240584
-29.048842
-0.9272622
-35.229297
-1.0304517
-42.819905
-1.1202385
-52.173774
-1.1782475
-63.741432
-1.1763624
-78.128261
-96.143122
-3.4647426e-05
-0.0081353771
-1.0687217e-05
-0.011563861
3.0587978e-05
-0.015399976
0.00011536815
-0.020357308
5.2654868e-05
-0.025273918
-6.3707747e-05
-0.030871927
-0.00018853623
-0.036530378
-0.00034737919
-0.044091804
-0.00052212903
-0.052572241
-0.00075101172
-0.063137734
-0.0010033371
-0.075534954
-0.0013240613
-0.090532808
-0.001690081
-0.10844002
-0.0021420459
-0.12989435
-0.0026675552
-0.15563028
-0.0033055373
-0.18640876
-0.0040615066
-0.22331575
-0.0049835988
-0.26744379
-0.0060993467
-0.32026174
-0.0074653512
-0.38338083
-0.0091654127
-0.45874448
-0.011327776
-0.54853641
-0.014126732
-0.65530356
-0.017816835
-0.78190502
-0.022713417
-0.93169118
-0.029149357
-1.108769
-0.037450429
-1.3183461
-0.047883212
-1.5672134
-0.060649798
-1.8639962
-0.075956754
-2.219227
-0.094062615
-2.6455982
-0.11529444
-3.1583042
-0.14006678
-3.7754733
-0.16891078
-4.5188925
-0.2024714
-5.4145683
-0.241408
-6.4956835
-0.28644729
-7.8000909
-0.33848993
-9.3752236
-0.39841557
-11.278506
-0.46694306
-13.583305
-0.54479922
-16.37712
-0.6323729
-19.768991
-0.7292982
-23.899801
-0.83400672
-28.943257
-0.94424639
-35.118257
-1.054686
-42.711688
-1.1549614
-52.075845
-1.2280784
-63.670609
-1.247971
-78.11102
-96.220517
-3.8657553e-05
-0.0081485374
-1.4824437e-05
-0.011586094
2.9112509e-05
-0.015441593
0.00011229735
-0.020437768
4.7321549e-05
-0.025206239
-6.0254784e-05
-0.030761116
-0.00017636677
-0.036410634
-0.0003292706
-0.043934435
-0.00049569558
-0.052400443
-0.00071185315
-0.062915376
-0.0009525118
-0.075286492
-0.0012588997
-0.090217504
-0.0016054345
-0.10808231
-0.0020340565
-0.12945268
-0.0025330247
-0.15511536
-0.0031390246
-0.18578385
-0.0038632936
-0.22256839
-0.004746761
-0.26653291
-0.0058176721
-0.31915785
-0.0071422513
-0.38201687
-0.0088110526
-0.45702856
-0.010954135
-0.54633703
-0.01375837
-0.65243301
-0.017493586
-0.7780917
-0.022479482
-0.92661551
-0.029061184
-1.1020837
-0.037541747
-1.3097452
-0.048146022
-1.55647
-0.061071774
-1.8509135
-0.076521259
-2.2035936
-0.09475406
-2.627153
-0.11610554
-3.1367097
-0.14100329
-3.7502961
-0.16999751
-4.4895761
-0.20375686
-5.3804308
-0.24295396
-6.4560352
-0.28835026
-7.7541452
-0.34087474
-9.3220522
-0.40148965
-11.217091
-0.47097763
-13.512776
-0.55028104
-16.296448
-0.6398568
-19.678105
-0.73945083
-23.798919
-0.84755828
-28.834165
-0.96373848
-35.001856
-1.081871
-42.595682
-1.1931597
-51.966822
-1.2819662
-63.584046
-1.3243394
-78.071297
-96.265826
-4.1851689e-05
-0.0081613539
-1.762734e-05
-0.011608874
2.950357e-05
-0.015486588
0.00010931553
-0.020515049
4.5089619e-05
-0.025139396
-5.5788159e-05
-0.030657179
-0.00016565508
-0.036297229
-0.00031237258
-0.043783427
-0.00047055765
-0.052237108
-0.00067740189
-0.062702593
-0.00090429149
-0.075052098
-0.0011948515
-0.089918395
-0.0015234515
-0.10774287
-0.0019306927
-0.12903298
-0.0024052811
-0.15462526
-0.002982913
-0.18518821
-0.0036770385
-0.22185196
-0.0045249623
-0.26565838
-0.0055575516
-0.31809304
-0.0068510727
-0.38068475
-0.0084961279
-0.45533711
-0.010629431
-0.54414815
-0.013456994
-0.64953981
-0.017263471
-0.77420779
-0.022373419
-0.92141661
-0.029132795
-1.095222
-0.037813587
-1.3009455
-0.048608513
-1.5455387
-0.061714768
-1.8376538
-0.077329617
-2.1877997
-0.095716427
-2.6085594
-0.11722138
-3.1149678
-0.1422871
-3.7249575
-0.17148506
-4.460063
-0.20550759
-5.3460377
-0.24504762
-6.416051
-0.29089201
-7.7077585
-0.34402902
-9.2682769
-0.40547056
-11.15486
-0.47608623
-13.44113
-0.55700122
-16.214235
-0.64874955
-19.585132
-0.7513471
-23.695095
-0.86344405
-28.720699
-0.98581046
-34.880123
-1.1120979
-42.471384
-1.2349572
-51.846133
-1.3401251
-63.481074
-1.4057117
-78.008363
-96.27816
-4.4451465e-05
-0.0081741689
-1.9617189e-05
-0.011632387
3.1293123e-05
-0.015535489
0.0001061632
-0.020587426
3.9131769e-05
-0.025070034
-5.8454164e-05
-0.030556605
-0.00016280253
-0.036189664
-0.00030229978
-0.043639813
-0.00045092749
-0.052083515
-0.00064765544
-0.062500182
-0.00086181332
-0.074830662
-0.0011378936
-0.089634098
-0.0014499094
-0.10742046
-0.0018371962
-0.12863366
-0.0022892927
-0.15415831
-0.0028433504
-0.18461657
-0.0035095356
-0.2211642
-0.0043236424
-0.26481861
-0.0053261912
-0.31705964
-0.006593916
-0.37938021
-0.0082222226
-0.45366502
-0.010359719
-0.54195838
-0.013235198
-0.64660339
-0.017140936
-0.77023013
-0.022412464
-0.91606302
-0.029376043
-1.0881637
-0.038270904
-1.2919397
-0.049278083
-1.5344037
-0.062584975
-1.8242026
-0.078387997
-2.171827
-0.096957084
-2.5897929
-0.11865022
-3.0930467
-0.14392888
-3.6994151
-0.17338638
-4.4302997
-0.2077452
-5.3113174
-0.24770809
-6.3756517
-0.29410432
-7.6608283
-0.34797271
-9.2137793
-0.41038888
-11.091662
-0.48230671
-13.368195
-0.56500529
-16.130317
-0.65913247
-19.489885
-0.76502845
-23.588007
-0.88179332
-28.602519
-1.0104805
-34.752598
-1.1454595
-42.338243
-1.2804919
-51.713179
-1.4027102
-63.361007
-1.4922708
-77.921458
-96.256631
-4.5179786e-05
-0.008188477
-1.8470045e-05
-0.011657693
3.7356353e-05
-0.015589299
0.00010683138
-0.02065451
3.8231472e-05
-0.024999235
-5.4399327e-05
-0.03046102
-0.0001519735
-0.03608885
-0.00028500247
-0.043502815
-0.00042411831
-0.051939568
-0.0006122002
-0.062306584
-0.00081603153
-0.074619821
-0.0010794299
-0.089362788
-0.0013767727
-0.10711304
-0.0017462989
-0.12825251
-0.0021787491
-0.15371145
-0.0027102186
-0.18406825
-0.0033513025
-0.22050217
-0.0041367034
-0.26400824
-0.0051175038
-0.31604852
-0.0063666031
-0.37809503
-0.0079867496
-0.45200141
-0.010151303
-0.53974232
-0.013101604
-0.6435922
-0.017134092
-0.76612655
-0.022597112
-0.91051836
-0.029788117
-1.0808783
-0.038910994
-1.282707
-0.050150156
-1.5230388
-0.063678502
-1.8105331
-0.079691966
-2.1556481
-0.098471745
-2.5708208
-0.12039004
-3.0709058
-0.14592809
-3.6736194
-0.17570423
-4.4002244
-0.21046404
-5.2762031
-0.25094835
-6.3347371
-0.29800065
-7.6132493
-0.35271999
-9.158438
-0.41626369
-11.027341
-0.48966711
-13.29378
-0.57435638
-16.044463
-0.67114908
-19.392054
-0.78065503
-23.477433
-0.90245271
-28.479662
-1.0375855
-34.618945
-1.182073
-42.195547
-1.3299145
-51.567346
-1.4698786
-63.223153
-1.584261
-77.809734
-96.200258
-4.7196115e-05
-0.0082030201
-2.0107595e-05
-0.011683549
3.8813724e-05
-0.015646282
0.00010027857
-0.020713759
3.5267919e-05
-0.024931882
-5.4548157e-05
-0.030368319
-0.00014695005
-0.035993324
-0.00027467559
-0.043371301
-0.00040594587
-0.051803472
-0.0005860287
-0.062121266
-0.00078041451
-0.074418498
-0.0010323435
-0.089103286
-0.0013166333
-0.10681892
-0.0016701071
-0.12788789
-0.0020862336
-0.15328141
-0.0025962965
-0.18354175
-0.0032137994
-0.2198644
-0.0039774103
-0.2632205
-0.0049406914
-0.31505619
-0.0061791306
-0.37682214
-0.0078093604
-0.45033019
-0.010022544
-0.53748085
-0.013067403
-0.64049094
-0.017259799
-0.76186851
-0.022940908
-0.90476199
-0.030373537
-1.073358
-0.039748584
-1.2732294
-0.051238325
-1.5114308
-0.065006331
-1.796632
-0.081254097
-2.1392433
-0.1002772
-2.5516139
-0.12246149
-3.0485075
-0.14830466
-3.6475271
-0.17845775
-4.3697809
-0.21370086
-5.2406141
-0.25479019
-6.2932242
-0.30260633
-7.5649148
-0.35831529
-9.1021145
-0.42314675
-10.961735
-0.4982219
-13.217688
-0.58511243
-15.956439
-0.68489594
-19.291295
-0.79825135
-23.363149
-0.92551487
-28.351399
-1.0677666
-34.478485
-1.2221197
-42.042962
-1.3833842
-51.408024
-1.5418781
-63.066726
-1.6818956
-77.672374
-96.108096
-4.6882768e-05
-0.0082196314
-1.7528599e-05
-0.011711612
4.544128e-05
-0.01570743
9.9120857e-05
-0.020765153
3.7706252e-05
-0.024868652
-4.8185121e-05
-0.030279636
-0.00013491224
-0.035903711
-0.00025732639
-0.043245156
-0.00038235232
-0.051673992
-0.00055482589
-0.061943694
-0.0007395354
-0.07422717
-0.00098012347
-0.088855341
-0.0012518336
-0.10653772
-0.0015894463
-0.12753952
-0.0019903563
-0.15286705
-0.0024828717
-0.18303347
-0.0030809528
-0.2192467
-0.0038297395
-0.26244818
-0.0047817979
-0.31407561
-0.0060184733
-0.37555155
-0.0076780578
-0.44862987
-0.0099564019
-0.53515468
-0.01312163
-0.63726923
-0.017509132
-0.7574159
-0.023429539
-0.8987666
-0.031121057
-1.0655797
-0.04076987
-1.2634793
-0.052528265
-1.4995564