/*--------------------------------*- C++ -*----------------------------------*\
  =========                 |
  \\      /  F ield         | OpenFOAM: The Open Source CFD Toolbox
   \\    /   O peration     | Website:  https://openfoam.org
    \\  /    A nd           | Version:  8
     \\/     M anipulation  |
\*---------------------------------------------------------------------------*/
FoamFile
{
    version     2.0;
    format      ascii;
    class       pointVectorField;
    location    "0.0900078";
    object      pointDisplacement;
}
// * * * * * * * * * * * * * * * * * * * * * * * * * * * * * * * * * * * * * //

dimensions      [0 1 0 0 0 0 0];

internalField   nonuniform List<vector> 
40800
(
(0.0016409435 0 0.0014062056)
(0.00164378 0 0.0011718448)
(0.0016435288 0 0.0011729048)
(0.0016405974 0 0.0014121772)
(0.001643505 0 0.0011724286)
(0.0016405767 0 0.0014117242)
(0.0016434552 0 0.0011718119)
(0.0016405294 0 0.0014112278)
(0.0016433669 0 0.0011711)
(0.001640445 0 0.0014106588)
(0.0016432238 0 0.0011702844)
(0.0016403074 0 0.0014100107)
(0.0016430032 0 0.00116936)
(0.0016400944 0 0.0014092823)
(0.0016426735 0 0.001168327)
(0.0016397751 0 0.0014084779)
(0.0016421921 0 0.0011671945)
(0.0016393077 0 0.0014076117)
(0.0016415006 0 0.0011659865)
(0.001638635 0 0.0014067133)
(0.0016405204 0 0.0011647498)
(0.0016376798 0 0.0014058355)
(0.001639146 0 0.0011635665)
(0.0016363383 0 0.001405067)
(0.0016372368 0 0.0011625707)
(0.0016344725 0 0.0014045479)
(0.0016346072 0 0.001161974)
(0.0016318996 0 0.001404495)
(0.0016310136 0 0.0011621001)
(0.0016283798 0 0.0014052348)
(0.0016261412 0 0.0011634323)
(0.0016236025 0 0.0014072505)
(0.0016195871 0 0.0011666828)
(0.0016171698 0 0.0014112461)
(0.0016108432 0 0.0011728811)
(0.0016085794 0 0.0014182329)
(0.0015992848 0 0.0011834907)
(0.0015972112 0 0.0014296375)
(0.001584161 0 0.0012005574)
(0.0015823182 0 0.0014474437)
(0.0015646019 0 0.0012268725)
(0.0015630305 0 0.0014743509)
(0.001539642 0 0.0012661342)
(0.0015383776 0 0.0015139264)
(0.0015082688 0 0.0013230484)
(0.0015073339 0 0.0015707134)
(0.0014695224 0 0.0014033026)
(0.0014689158 0 0.0016502074)
(0.0014226062 0 0.0015133166)
(0.0014222902 0 0.0017586167)
(0.0013670696 0 0.0016596511)
(0.0013669626 0 0.0019022947)
(0.0013028857 0 0.00184819)
(0.0013028524 0 0.0020869563)
(0.0012306366 0 0.0020826079)
(0.0012305091 0 0.0023161125)
(0.0011514152 0 0.0023634295)
(0.001151009 0 0.0025901956)
(0.0010669307 0 0.0026864208)
(0.0010660871 0 0.0029048949)
(0.00097906738 0 0.0030432781)
(0.00097766366 0 0.0032519661)
(0.00089013699 0 0.0034201712)
(0.0008881566 0 0.0036174688)
(0.000802412 0 0.0038006681)
(0.00079992739 0 0.0039850641)
(0.00071777845 0 0.0041679651)
(0.00071493588 0 0.0043381054)
(0.0006376613 0 0.0045070292)
(0.00063459319 0 0.004662116)
(0.00056324547 0 0.0048054138)
(0.00056014021 0 0.0049449506)
(0.00049524643 0 0.0050536238)
(0.00049221674 0 0.0051776997)
(0.00043384937 0 0.0052470466)
(0.00043102545 0 0.0053561375)
(0.00037918731 0 0.005382201)
(0.00037661654 0 0.0054772046)
(0.00033073123 0 0.0054592168)
(0.00032847331 0 0.0055412142)
(0.00028830262 0 0.0054760681)
(0.00028636399 0 0.00554618)
(0.00025086405 0 0.005431616)
(0.00024925937 0 0.0054910228)
(0.0002171011 0 0.0053174866)
(0.00021569826 0 0.0053667452)
(0.00018643853 0 0.005128554)
(0.00018525859 0 0.0051687199)
(0.00015924933 0 0.0048546621)
(0.00015827459 0 0.0048860577)
(0.00013440241 0 0.0044895343)
(0.0001336396 0 0.0045137039)
(0.00011196997 0 0.0040231364)
(0.00011145236 0 0.0040414392)
(8.9076388e-05 0 0.0034189867)
(8.8708225e-05 0 0.0034325579)
(6.4315509e-05 0 0.0026323541)
(6.4091595e-05 0 0.0026429838)
(3.5105348e-05 0 0.0015559483)
(3.4998464e-05 0 0.0015651355)
(0 0 0)
(0 0 0)
(0.0016456554 0 0.00094251695)
(0.0016454093 0 0.00094342716)
(0.0016453845 0 0.00094274561)
(0.0016453323 0 0.0009419511)
(0.0016452408 0 0.00094102592)
(0.0016450932 0 0.00093995584)
(0.0016448663 0 0.00093872834)
(0.001644528 0 0.00093733508)
(0.0016440348 0 0.0009357758)
(0.0016433272 0 0.00093406392)
(0.0016423253 0 0.00093223443)
(0.0016409217 0 0.00093035621)
(0.0016389737 0 0.00092854904)
(0.001636293 0 0.0009270089)
(0.001632633 0 0.00092604384)
(0.0016276747 0 0.00092612228)
(0.0016210106 0 0.00092794754)
(0.0016121285 0 0.00093254792)
(0.0016003987 0 0.00094140151)
(0.0015850683 0 0.00095659174)
(0.0015652677 0 0.0009809817)
(0.0015400358 0 0.0010183869)
(0.001508373 0 0.0010736572)
(0.0014693409 0 0.0011526621)
(0.0014221807 0 0.0012620437)
(0.0013664797 0 0.0014086091)
(0.0013022668 0 0.0015984571)
(0.0012301528 0 0.0018355271)
(0.0011512502 0 0.0021205343)
(0.0010672441 0 0.002449444)
(0.00097998448 0 0.0028139956)
(0.00089168854 0 0.0032005317)
(0.00080452486 0 0.0035926488)
(0.00072032703 0 0.0039733323)
(0.00064050058 0 0.0043271353)
(0.00056621167 0 0.00464113)
(0.00049818665 0 0.004905413)
(0.00043665759 0 0.0051147058)
(0.00038176132 0 0.0052652315)
(0.00033303753 0 0.0053566561)
(0.0002902801 0 0.0053869685)
(0.00025252326 0 0.0053548157)
(0.00021852001 0 0.005252364)
(0.00018767245 0 0.005074258)
(0.00016024338 0 0.0048105754)
(0.00013519827 0 0.004454505)
(0.00011248306 0 0.0039951712)
(8.9414811e-05 0 0.0033971739)
(6.4503445e-05 0 0.0026146876)
(3.5169106e-05 0 0.0015413786)
(0 0 0)
(0.0016465908 0 0.00071811739)
(0.0016463509 0 0.00071892052)
(0.0016463233 0 0.00071807272)
(0.0016462672 0 0.00071708241)
(0.0016461705 0 0.00071592947)
(0.001646016 0 0.00071459398)
(0.0016457799 0 0.00071305613)
(0.0016454296 0 0.00071129893)
(0.0016449205 0 0.00070931238)
(0.0016441919 0 0.00070709848)
(0.0016431625 0 0.00070467939)
(0.001641723 0 0.00070210987)
(0.0016397283 0 0.00069949434)
(0.0016369868 0 0.00069701322)
(0.0016332484 0 0.00069495836)
(0.0016281899 0 0.00069378643)
(0.0016213985 0 0.00069418947)
(0.0016123573 0 0.00069719624)
(0.0016004323 0 0.00070430256)
(0.0015848685 0 0.00071763003)
(0.0015647975 0 0.00074012913)
(0.0015392634 0 0.0007757462)
(0.0015072807 0 0.00082946877)
(0.001467936 0 0.00090734105)
(0.0014205112 0 0.0010162199)
(0.0013646372 0 0.0011631353)
(0.0013004017 0 0.0013543805)
(0.0012284476 0 0.001594118)
(0.0011499089 0 0.0018832123)
(0.0010664466 0 0.0022177935)
(0.00097987103 0 0.0025896462)
(0.00089230236 0 0.0029852823)
(0.00080580502 0 0.003388344)
(0.00072215184 0 0.0037816633)
(0.00064272108 0 0.0041494486)
(0.00056865923 0 0.0044783405)
(0.00050069901 0 0.0047580577)
(0.000439116 0 0.0049826975)
(0.00038405411 0 0.0051481752)
(0.00033511718 0 0.005253706)
(0.00029207966 0 0.0052972535)
(0.00025404269 0 0.0052772562)
(0.00021982287 0 0.0051863456)
(0.00018880847 0 0.005018975)
(0.00016116316 0 0.0047654238)
(0.00013593374 0 0.0044183863)
(0.0001129574 0 0.0039662127)
(8.9723232e-05 0 0.0033744592)
(6.4670804e-05 0 0.0025963779)
(3.5223587e-05 0 0.0015267214)
(0 0 0)
(0.0016466161 0 0.0004985439)
(0.0016463812 0 0.00049926358)
(0.0016463491 0 0.00049827415)
(0.0016462873 0 0.00049711238)
(0.0016461832 0 0.00049574979)
(0.0016460193 0 0.00049415975)
(0.0016457712 0 0.00049231564)
(0.0016454054 0 0.00049019298)
(0.0016448762 0 0.00048777324)
(0.0016441218 0 0.00048504831)
(0.001643059 0 0.00048202936)
(0.0016415765 0 0.00047875804)
(0.0016395263 0 0.00047532502)
(0.0016367136 0 0.00047189518)
(0.0016328843 0 0.00046874524)
(0.0016277102 0 0.0004663169)
(0.0016207736 0 0.00046529301)
(0.0016115521 0 0.00046670177)
(0.0015994078 0 0.00047205879)
(0.001583584 0 0.00048353064)
(0.0015632141 0 0.00050417208)
(0.0015373488 0 0.00053808456)
(0.0015050166 0 0.00059037183)
(0.0014653333 0 0.0006672406)
(0.0014176252 0 0.00077576314)
(0.001361572 0 0.0009231656)
(0.0012973218 0 0.0011159167)
(0.0012255536 0 0.0013583607)
(0.0011474234 0 0.0016514717)
(0.0010645685 0 0.0019915091)
(0.00097875402 0 0.0023703046)
(0.00089200059 0 0.0027745343)
(0.00080626864 0 0.0031878999)
(0.00072326276 0 0.003593134)
(0.00064432798 0 0.0039741612)
(0.00057058882 0 0.0043172435)
(0.00050278166 0 0.0046117508)
(0.00044122088 0 0.0048512017)
(0.00038606117 0 0.0050311923)
(0.00033696541 0 0.0051505047)
(0.00029369663 0 0.0052070389)
(0.00025541795 0 0.0051990329)
(0.00022100696 0 0.0051195129)
(0.00018984448 0 0.0049627716)
(0.00016200652 0 0.004719262)
(0.00013660744 0 0.0043812217)
(0.0001133915 0 0.0039362935)
(9.0000828e-05 0 0.0033508672)
(6.481703e-05 0 0.0025774379)
(3.5268488e-05 0 0.0015119665)
(0 0 0)
(0.0016457597 0 0.00028369588)
(0.0016455274 0 0.00028432295)
(0.0016454895 0 0.00028318259)
(0.0016454203 0 0.00028184137)
(0.0016453068 0 0.00028026565)
(0.0016451311 0 0.0002784225)
(0.0016448679 0 0.00027627776)
(0.0016444828 0 0.00027379836)
(0.0016439292 0 0.00027095558)
(0.0016431438 0 0.00026773008)
(0.0016420413 0 0.00026412041)
(0.0016405081 0 0.00026015449)
(0.0016383933 0 0.00025590837)
(0.0016354984 0 0.00025153138)
(0.0016315647 0 0.00024728483)
(0.0016262591 0 0.00024359562)
(0.0016191581 0 0.00024113497)
(0.0016097342 0 0.00024093073)
(0.0015973458 0 0.00024453513)
(0.0015812347 0 0.0002541516)
(0.0015605383 0 0.00027296717)
(0.0015343134 0 0.00030528832)
(0.0015016023 0 0.00035627437)
(0.0014615546 0 0.00043227115)
(0.0014135455 0 0.00054060304)
(0.0013573087 0 0.00068865922)
(0.0012930539 0 0.00088304751)
(0.0012214991 0 0.0011282584)
(0.0011438229 0 0.0014253388)
(0.0010616378 0 0.0017706444)
(0.00097665871 0 0.0021560533)
(0.00089080485 0 0.0025684)
(0.00080593179 0 0.0029914607)
(0.0007236703 0 0.0034079143)
(0.00064532699 0 0.003801459)
(0.00057200199 0 0.0041580305)
(0.00050443316 0 0.0044666811)
(0.00044296899 0 0.0047203948)
(0.0003877781 0 0.0049144412)
(0.00033857762 0 0.0050471896)
(0.00029512623 0 0.0051164408)
(0.00025664461 0 0.0051202406)
(0.00022206911 0 0.0050519455)
(0.00019077823 0 0.0049057125)
(0.00016277103 0 0.0046721424)
(0.00013721778 0 0.0043430524)
(0.00011378362 0 0.0039054398)
(9.0246622e-05 0 0.0033264178)
(6.4941623e-05 0 0.0025578784)
(3.5303509e-05 0 0.001497104)
(0 0 0)
(0.0016440431 0 7.3475402e-05)
(0.0016438139 0 7.4009195e-05)
(0.0016437689 0 7.2716526e-05)
(0.0016436908 0 7.119429e-05)
(0.0016435662 0 6.9404152e-05)
(0.0016433763 0 6.7307138e-05)
(0.0016430951 0 6.4861887e-05)
(0.0016426873 0 6.2026813e-05)
(0.0016421049 0 5.876321e-05)
(0.001641283 0 5.5040336e-05)
(0.0016401343 0 5.0843811e-05)
(0.0016385426 0 4.6187271e-05)
(0.0016363536 0 4.1131262e-05)
(0.0016333649 0 3.5808567e-05)
(0.0016293129 0 3.0463406e-05)
(0.0016238587 0 2.5505837e-05)
(0.0016165731 0 2.1591754e-05)
(0.0016069237 0 1.9740299e-05)
(0.0015942658 0 2.1596751e-05)
(0.001577842 0 2.9491696e-05)
(0.0015567949 0 4.6640051e-05)
(0.0015301817 0 7.7392883e-05)
(0.001497059 0 0.00012709295)
(0.0014566212 0 0.00020235266)
(0.0014082956 0 0.00031068428)
(0.0013518726 0 0.00045957973)
(0.0012876255 0 0.00065575678)
(0.0012163135 0 0.00090381503)
(0.0011391374 0 0.0012048366)
(0.0010576842 0 0.0015552452)
(0.00097361239 0 0.001946964)
(0.00088873859 0 0.0023669799)
(0.00080481265 0 0.0027991562)
(0.00072338701 0 0.0032261596)
(0.00064572571 0 0.0036315149)
(0.00057290199 0 0.004000882)
(0.00050565357 0 0.0043230283)
(0.00044435829 0 0.0045904467)
(0.00038920141 0 0.0047980768)
(0.00033994987 0 0.0049438959)
(0.00029636418 0 0.0050255744)
(0.0002577186 0 0.0050409742)
(0.00022300634 0 0.0049837239)
(0.00019160748 0 0.0048478627)
(0.0001634544 0 0.0046241184)
(0.00013776321 0 0.0043039201)
(0.00011413205 0 0.0038736796)
(9.0459679e-05 0 0.0033011331)
(6.5044063e-05 0 0.002537713)
(3.5328349e-05 0 0.0014821265)
(0 0 0)
(0.0016414911 0 -0.00013221294)
(0.0016412643 0 -0.00013176921)
(0.0016412108 0 -0.00013320996)
(0.0016411221 0 -0.0001349079)
(0.0016409842 0 -0.00013690749)
(0.0016407776 0 -0.00013925452)
(0.0016404756 0 -0.00014199823)
(0.0016400416 0 -0.00014518877)
(0.0016394263 0 -0.00014887456)
(0.0016385627 0 -0.00015309724)
(0.0016373615 0 -0.00015788346)
(0.0016357034 0 -0.00016323338)
(0.0016334306 0 -0.00016910174)
(0.001630336 0 -0.0001753729)
(0.0016261509 0 -0.00018182126)
(0.00162053 0 -0.0001880576)
(0.0016130377 0 -0.00019344436)
(0.0016031411 0 -0.00019689026)
(0.0015901965 0 -0.00019664544)
(0.0015734411 0 -0.00019025497)
(0.0015520122 0 -0.00017456152)
(0.0015249727 0 -0.00014535904)
(0.0014914093 0 -9.6966198e-05)
(0.0014505584 0 -2.244599e-05)
(0.0014019 0 8.5961097e-05)
(0.0013452903 0 0.00023589619)
(0.0012810656 0 0.0004340288)
(0.0012100281 0 0.00068503039)
(0.0011333993 0 0.00098998084)
(0.0010527392 0 0.0013453476)
(0.00096964459 0 0.0017430958)
(0.00088582769 0 0.002170359)
(0.00080293172 0 0.0026110997)
(0.00072242779 0 0.0030480086)
(0.0006455338 0 0.0034644862)
(0.00057329407 0 0.0038459641)
(0.00050644445 0 0.0041809615)
(0.00044538802 0 0.0044615195)
(0.00039032862 0 0.0046822485)
(0.00034107905 0 0.0048407557)
(0.00029740682 0 0.0049345535)
(0.00025863631 0 0.004961328)
(0.00022381579 0 0.004914928)
(0.00019233016 0 0.0047892879)
(0.00016405442 0 0.0045752434)
(0.00013824219 0 0.0042638669)
(0.00011443508 0 0.0038410395)
(9.0639026e-05 0 0.0032750345)
(6.5123855e-05 0 0.0025169536)
(3.53427e-05 0 0.0014670266)
(0 0 0)
(0.0016381294 0 -0.00033346368)
(0.0016379046 0 -0.00033311087)
(0.0016378413 0 -0.00033470159)
(0.0016377404 0 -0.00033657751)
(0.0016375872 0 -0.00033878887)
(0.0016373615 0 -0.00034138789)
(0.0016370355 0 -0.00034443132)
(0.0016365715 0 -0.00034797765)
(0.0016359185 0 -0.00035208491)
(0.0016350077 0 -0.00035680563)
(0.001633747 0 -0.00036217886)
(0.0016320141 0 -0.00036821895)
(0.0016296471 0 -0.00037489643)
(0.001626434 0 -0.00038211348)
(0.0016221001 0 -0.00038966504)
(0.0016162933 0 -0.0003971892)
(0.0016085766 0 -0.00040399552)
(0.0015984199 0 -0.00040884462)
(0.0015851723 0 -0.00041000459)
(0.0015680578 0 -0.00040506837)
(0.0015462088 0 -0.00039081037)
(0.0015187069 0 -0.00036296498)
(0.0014846755 0 -0.00031567495)
(0.0014433877 0 -0.00024189421)
(0.0013943827 0 -0.00013347599)
(0.0013375883 0 1.7587258e-05)
(0.0012734036 0 0.00021785236)
(0.0012026745 0 0.00047190614)
(0.0011266419 0 0.00078078566)
(0.0010468358 0 0.0011409825)
(0.00096478618 0 0.0015444997)
(0.00088209927 0 0.0019786125)
(0.00080031104 0 0.0024273923)
(0.00072080908 0 0.0028735866)
(0.00064476242 0 0.0033005177)
(0.00057318473 0 0.0036934326)
(0.0005068086 0 0.0040406407)
(0.00044605846 0 0.0043337678)
(0.00039115804 0 0.0045671007)
(0.00034196263 0 0.0047378976)
(0.00029825089 0 0.00484349)
(0.00025939445 0 0.0048813957)
(0.00022449479 0 0.0048456374)
(0.00019294424 0 0.0047300533)
(0.00016456898 0 0.0045255712)
(0.00013865321 0 0.0042229353)
(0.00011469104 0 0.0038075477)
(9.0783682e-05 0 0.0032481435)
(6.5180481e-05 0 0.0024956143)
(3.534626e-05 0 0.0014517989)
(0 0 0)
(0.0016339836 0 -0.00053036863)
(0.0016337586 0 -0.00053010746)
(0.0016336839 0 -0.00053185049)
(0.0016335688 0 -0.0005339079)
(0.001633398 0 -0.00053633466)
(0.0016331505 0 -0.0005391887)
(0.0016327973 0 -0.0005425334)
(0.0016322995 0 -0.00054643545)
(0.0016316041 0 -0.00055096253)
(0.0016306403 0 -0.00055617825)
(0.0016293132 0 -0.00056213447)
(0.0016274969 0 -0.00056886001)
(0.0016250252 0 -0.0005763414)
(0.0016216806 0 -0.00058449774)
(0.0016171818 0 -0.00059313958)
(0.0016111731 0 -0.00060191474)
(0.0016032219 0 -0.00061001453)
(0.0015927905 0 -0.000616154)
(0.0015792105 0 -0.00061868266)
(0.0015617008 0 -0.00061521077)
(0.0015393986 0 -0.00060239094)
(0.0015114049 0 -0.00057574157)
(0.0014768744 0 -0.00052932718)
(0.0014351281 0 -0.00045601151)
(0.0013857653 0 -0.00034753097)
(0.0013287908 0 -0.00019537034)
(0.0012646706 0 7.2158275e-06)
(0.0011942867 0 0.0002644404)
(0.0011189003 0 0.00057725789)
(0.0010400089 0 0.00094217078)
(0.00095907008 0 0.0013512133)
(0.00087758262 0 0.0017917997)
(0.0007969747 0 0.0022481183)
(0.00071854934 0 0.0027030018)
(0.00064342469 0 0.0031397374)
(0.00057258236 0 0.0035434278)
(0.00050675044 0 0.0039022129)
(0.00044637119 0 0.0042073368)
(0.00039168911 0 0.0044527704)
(0.00034259896 0 0.0046354457)
(0.00029889384 0 0.0047524932)
(0.00025999024 0 0.0048012692)
(0.00022504093 0 0.004775931)
(0.00019344789 0 0.0046702242)
(0.00016499612 0 0.0044751556)
(0.0001389948 0 0.0041811681)
(0.0001148983 0 0.003773232)
(9.0892674e-05 0 0.0032204821)
(6.5213425e-05 0 0.0024737085)
(3.5338724e-05 0 0.0014364388)
(0 0 0)
(0.0016290742 0 -0.00072301741)
(0.0016288485 0 -0.00072284797)
(0.001628761 0 -0.00072474362)
(0.0016286301 0 -0.00072698268)
(0.0016284396 0 -0.00072962452)
(0.0016281677 0 -0.00073273273)
(0.0016277842 0 -0.00073637748)
(0.0016272485 0 -0.00074063369)
(0.001626506 0 -0.00074557871)
(0.0016254833 0 -0.00075128759)
(0.0016240825 0 -0.00075782528)
(0.0016221739 0 -0.00076523546)
(0.0016195866 0 -0.0007735214)
(0.0016160973 0 -0.00078262022)
(0.0016114182 0 -0.00079235782)
(0.0016051957 0 -0.00080229517)
(0.0015969968 0 -0.00081158106)
(0.0015862662 0 -0.00081901885)
(0.0015723228 0 -0.00082294002)
(0.0015543857 0 -0.00082088692)
(0.0015315975 0 -0.00080942165)
(0.0015030794 0 -0.0007839)
(0.0014680217 0 -0.00073823384)
(0.0014257977 0 -0.00066508219)
(0.001376071 0 -0.00055624137)
(0.0013189278 0 -0.00040288927)
(0.0012548986 0 -0.0001978892)
(0.0011848994 0 6.2633625e-05)
(0.0011102107 0 0.00037940201)
(0.0010322948 0 0.00074892691)
(0.00095253057 0 0.0011632658)
(0.00087230828 0 0.0016099698)
(0.0007929482 0 0.0020733496)
(0.0007156685 0 0.0025363491)
(0.00064153508 0 0.002982261)
(0.00057149661 0 0.0033960784)
(0.0005062755 0 0.0037658155)
(0.00044632878 0 0.0040823635)
(0.00039192208 0 0.0043393888)
(0.000342987 0 0.0045335197)
(0.00029933365 0 0.0046616691)
(0.00026042127 0 0.0047210392)
(0.00022545203 0 0.0047058866)
(0.00019383936 0 0.0046098654)
(0.000165334 0 0.0044240504)
(0.00013926555 0 0.0041386084)
(0.0001150553 0 0.0037381216)
(9.0965056e-05 0 0.0031920737)
(6.5222154e-05 0 0.0024512508)
(3.5319767e-05 0 0.0014209423)
(0 0 0)
(0.0016234215 0 -0.00091149774)
(0.001623196 0 -0.00091141646)
(0.0016230942 0 -0.00091345995)
(0.0016229456 0 -0.00091587426)
(0.0016227332 0 -0.00091872465)
(0.0016224342 0 -0.0009220813)
(0.0016220172 0 -0.000926022)
(0.0016214398 0 -0.00093063019)
(0.0016206454 0 -0.00093599316)
(0.0016195578 0 -0.00094219727)
(0.0016180759 0 -0.00094932031)
(0.0016160657 0 -0.00095742096)
(0.0016133511 0 -0.00096652006)
(0.0016097024 0 -0.00097657809)
(0.0016048308 0 -0.00098740081)
(0.0015983855 0 -0.00099843332)
(0.0015899201 0 -0.0010088663)
(0.0015788623 0 -0.0010175895)
(0.001564526 0 -0.001022868)
(0.0015461289 0 -0.0010221838)
(0.001522821 0 -0.0010120014)
(0.0014937461 0 -0.00098752548)
(0.0014581354 0 -0.00094246645)
(0.0014154173 0 -0.00086927328)
(0.0013653303 0 -0.00075964446)
(0.0013080317 0 -0.00060487948)
(0.0012441182 0 -0.00039747183)
(0.001174549 0 -0.00013351833)
(0.0011006113 0 0.00018721525)
(0.0010237314 0 0.0005612561)
(0.00094520358 0 0.00098067455)
(0.0008663085 0 0.0014331578)
(0.00078825869 0 0.0019031428)
(0.00071218807 0 0.002373707)
(0.00063911157 0 0.0028282742)
(0.00056994228 0 0.0032516803)
(0.00050539247 0 0.0036316687)
(0.00044593506 0 0.0039589758)
(0.00039185827 0 0.0042270788)
(0.00034312655 0 0.0044322341)
(0.00029956893 0 0.0045711205)
(0.00026068563 0 0.0046407941)
(0.00022572623 0 0.004635581)
(0.00019411713 0 0.0045490414)
(0.00016558095 0 0.0043723096)
(0.00013946413 0 0.0040952994)
(0.00011516055 0 0.0037022461)
(9.0999843e-05 0 0.0031629408)
(6.5206121e-05 0 0.0024282559)
(3.5289093e-05 0 0.0014053074)
(0 0 0)
(0.001617053 0 -0.0010958961)
(0.0016168238 0 -0.001095903)
(0.0016167062 0 -0.0010980947)
(0.0016165381 0 -0.0011006843)
(0.0016163017 0 -0.0011037426)
(0.0016159729 0 -0.0011073465)
(0.0016155188 0 -0.0011115815)
(0.0016148955 0 -0.0011165399)
(0.0016140439 0 -0.0011223191)
(0.001612885 0 -0.0011290164)
(0.001611314 0 -0.0011367227)
(0.0016091926 0 -0.0011455103)
(0.0016063386 0 -0.0011554155)
(0.0016025182 0 -0.0011664158)
(0.0015974458 0 -0.0011782488)
(0.0015907649 0 -0.0011903451)
(0.0015820095 0 -0.0012019532)
(0.0015705963 0 -0.0012119451)
(0.0015558359 0 -0.0012185501)
(0.001536945 0 -0.0012191897)
(0.0015130831 0 -0.0012102231)
(0.0014834198 0 -0.0011867073)
(0.0014472334 0 -0.0011421025)
(0.0014040108 0 -0.0010686464)
(0.0013535668 0 -0.00095788478)
(0.0012961314 0 -0.00080136183)
(0.0012323671 0 -0.00059143029)
(0.0011632732 0 -0.0003240183)
(0.0010901409 0 6.9230983e-07)
(0.0010143575 0 0.00037915894)
(0.00093712577 0 0.00080345002)
(0.00085961614 0 0.0012613898)
(0.00078293821 0 0.0017376584)
(0.00070813941 0 0.0022153865)
(0.00063617935 0 0.0026781025)
(0.00056793661 0 0.0031105648)
(0.00050411145 0 0.0035000929)
(0.00044519622 0 0.0038374577)
(0.00039150062 0 0.0041160371)
(0.00034301795 0 0.0043316988)
(0.00029959875 0 0.0044809464)
(0.00026078174 0 0.0045606202)
(0.00022586187 0 0.0045650894)
(0.00019427976 0 0.0044878155)
(0.0001657354 0 0.0043199864)
(0.00013958922 0 0.0040512844)
(0.00011521261 0 0.0036656359)
(9.0996105e-05 0 0.0031331077)
(6.5164774e-05 0 0.0024047393)
(3.5246364e-05 0 0.0013895318)
(0 0 0)
(0.0016099825 0 -0.0012762962)
(0.0016097522 0 -0.0012763837)
(0.0016096173 0 -0.0012787173)
(0.0016094278 0 -0.0012814777)
(0.0016091651 0 -0.0012847428)
(0.0016088036 0 -0.001288596)
(0.001608309 0 -0.0012931296)
(0.0016076355 0 -0.0012984437)
(0.0016067213 0 -0.0013046442)
(0.0016054847 0 -0.0013118388)
(0.001603817 0 -0.0013201295)
(0.0016015746 0 -0.0013296019)
(0.0015985699 0 -0.0013403077)
(0.0015945682 0 -0.0013521999)
(0.0015892849 0 -0.001364979)
(0.001582349 0 -0.0013781319)
(0.0015732786 0 -0.0013909213)
(0.001561483 0 -0.0014021667)
(0.001546267 0 -0.0014100713)
(0.0015268478 0 -0.0014119925)
(0.001502397 0 -0.0014041723)
(0.001472122 0 -0.001381401)
(0.0014353481 0 -0.0013369556)
(0.001391615 0 -0.0012630057)
(0.0013408121 0 -0.0011509861)
(0.0012832637 0 -0.00099236096)
(0.0012196866 0 -0.00077966339)
(0.0011511084 0 -0.00050887094)
(0.0010788397 0 -0.00018018146)
(0.0010042133 0 0.00020262481)
(0.00092834109 0 0.00063169895)
(0.00085227975 0 0.0010949356)
(0.00077703205 0 0.0015772285)
(0.00070355917 0 0.0020617529)
(0.0006327616 0 0.0025319496)
(0.00056549159 0 0.0029727317)
(0.00050244197 0 0.0033712252)
(0.00044412011 0 0.0037181017)
(0.00039085246 0 0.0040064667)
(0.00034266181 0 0.0042320128)
(0.00029942274 0 0.0043912336)
(0.00026070854 0 0.0044806006)
(0.00022585767 0 0.0044944853)
(0.00019432605 0 0.0044262505)
(0.00016579598 0 0.0042671339)
(0.00013963962 0 0.0040066069)
(0.00011521013 0 0.003628322)
(9.0952878e-05 0 0.003102598)
(6.5097556e-05 0 0.0023807171)
(3.5191257e-05 0 0.0013736146)
(0 0 0)
(0.0016022365 0 -0.0014527809)
(0.0016020024 0 -0.0014529665)
(0.0016018481 0 -0.0014554611)
(0.0016016349 0 -0.0014584106)
(0.001601343 0 -0.0014618957)
(0.0016009456 0 -0.0014660052)
(0.0016004069 0 -0.001470838)
(0.0015996786 0 -0.0014765028)
(0.0015986968 0 -0.0014831152)
(0.001597376 0 -0.0014907945)
(0.0015956034 0 -0.0014996557)
(0.0015932302 0 -0.0015097985)
(0.0015900642 0 -0.001521294)
(0.0015858721 0 -0.0015340426)
(0.0015803636 0 -0.0015477446)
(0.0015731522 0 -0.0015619406)
(0.0015637431 0 -0.001575875)
(0.001551537 0 -0.0015883441)
(0.0015358324 0 -0.0015975186)
(0.0015158492 0 -0.00160068)
(0.0014907864 0 -0.0015938199)
(0.0014598915 0 -0.0015714237)
(0.001422519 0 -0.0015267982)
(0.0013782646 0 -0.0014521103)
(0.0013271044 0 -0.0013387204)
(0.0012694624 0 -0.001177882)
(0.001206105 0 -0.00096229251)
(0.0011380911 0 -0.00068809217)
(0.001066749 0 -0.0003554234)
(0.0009933491 0 3.1754878e-05)
(0.00091890997 0 0.00046570813)
(0.00084435687 0 0.00093417418)
(0.00077058037 0 0.0014220516)
(0.00069846865 0 0.0019127481)
(0.00062887231 0 0.002389744)
(0.00056261784 0 0.002838113)
(0.00050039236 0 0.0032450087)
(0.00044271151 0 0.0036008825)
(0.00038991653 0 0.003898472)
(0.0003420602 0 0.0041333478)
(0.00029904105 0 0.0043020728)
(0.00026046531 0 0.0044008161)
(0.00022571256 0 0.0044238405)
(0.00019425493 0 0.0043644078)
(0.0001657614 0 0.0042138046)
(0.0001396142 0 0.00396131)
(0.00011515181 0 0.0035903364)
(9.0869264e-05 0 0.0030714372)
(6.5003896e-05 0 0.0023562058)
(3.5123456e-05 0 0.0013575562)
(0 0 0)
(0.0015938358 0 -0.0016254305)
(0.0015935954 0 -0.0016257048)
(0.0015934202 0 -0.001628351)
(0.0015931812 0 -0.001631481)
(0.0015928577 0 -0.0016351805)
(0.0015924214 0 -0.0016395442)
(0.0015918346 0 -0.0016446774)
(0.0015910469 0 -0.0016506965)
(0.0015899915 0 -0.0016577259)
(0.0015885794 0 -0.0016658943)
(0.0015866934 0 -0.0016753277)
(0.0015841791 0 -0.001686136)
(0.0015808416 0 -0.0016984)
(0.0015764487 0 -0.001711996)
(0.0015706993 0 -0.0017266219)
(0.0015631909 0 -0.0017418434)
(0.0015534183 0 -0.0017568959)
(0.0015407719 0 -0.001770556)
(0.0015245439 0 -0.0017809727)
(0.001503972 0 -0.0017852327)
(0.0014782889 0 -0.001779012)
(0.0014467547 0 -0.0017567826)
(0.0014087561 0 -0.0017118526)
(0.0013639706 0 -0.0016361916)
(0.0013124697 0 -0.0015210937)
(0.0012547566 0 -0.0013579197)
(0.001191651 0 -0.0011394423)
(0.0011242621 0 -0.0008617184)
(0.0010539231 0 -0.00052493663)
(0.00098183566 0 -0.00013315017)
(0.00090889311 0 0.00030568849)
(0.00083588409 0 0.00077906974)
(0.00076360651 0 0.0012720013)
(0.00069288517 0 0.0017682104)
(0.00062452748 0 0.0022514051)
(0.00055932976 0 0.0027067498)
(0.00049797198 0 0.0031214379)
(0.00044097575 0 0.0034857369)
(0.0003886975 0 0.0037921308)
(0.00034121627 0 0.0040358753)
(0.00029845413 0 0.0042135524)
(0.00026005183 0 0.0043213441)
(0.00022542582 0 0.0043532248)
(0.00019406554 0 0.0043023479)
(0.00016563058 0 0.0041600505)
(0.00013951189 0 0.0039154373)
(0.00011503644 0 0.0035517113)
(9.0744322e-05 0 0.0030396501)
(6.4883203e-05 0 0.0023312224)
(3.5042603e-05 0 0.0013413567)
(0 0 0)
(0.0015847934 0 -0.0017943239)
(0.0015845485 0 -0.0017946861)
(0.0015843507 0 -0.001797483)
(0.0015840839 0 -0.0018007923)
(0.0015837262 0 -0.0018047047)
(0.0015832478 0 -0.0018093209)
(0.0015826091 0 -0.0018147532)
(0.0015817574 0 -0.0018211259)
(0.0015806226 0 -0.0018285726)
(0.0015791122 0 -0.0018372327)
(0.0015771039 0 -0.0018472443)
(0.0015744376 0 -0.0018587322)
(0.0015709185 0 -0.0018717431)
(0.0015663133 0 -0.0018861509)
(0.0015603066 0 -0.0019016889)
(0.0015524804 0 -0.0019179155)
(0.0015423185 0 -0.0019340573)
(0.0015292008 0 -0.0019488657)
(0.0015124229 0 -0.0019604202)
(0.0014912506 0 -0.0019655289)
(0.0014649245 0 -0.0019597683)
(0.0014327098 0 -0.0019377017)
(0.0013940608 0 -0.0018923742)
(0.0013487452 0 -0.0018155108)
(0.0012969269 0 -0.001698342)
(0.001239181 0 -0.0015324727)
(0.0011763789 0 -0.0013109106)
(0.0011096852 0 -0.0010295535)
(0.0010404405 0 -0.00068840879)
(0.00096974242 0 -0.00029185335)
(0.00089833075 0 0.0001515947)
(0.0008268872 0 0.0006294305)
(0.00075613395 0 0.0011269279)
(0.00068683242 0 0.0016281165)
(0.00061974633 0 0.0021169384)
(0.00055564224 0 0.002578672)
(0.0004951917 0 0.0030005646)
(0.00043892069 0 0.0033727302)
(0.00038719993 0 0.0036874659)
(0.00034013243 0 0.003939665)
(0.00029766363 0 0.0041258165)
(0.00025946819 0 0.0042422593)
(0.00022499696 0 0.0042827059)
(0.00019375717 0 0.00424013)
(0.00016540252 0 0.004105923)
(0.0001393317 0 0.0038690319)
(0.00011486284 0 0.0035124798)
(9.0577168e-05 0 0.0030072628)
(6.4734894e-05 0 0.0023057846)
(3.4948382e-05 0 0.0013250183)
(0 0 0)
(0.0015751326 0 -0.001959538)
(0.0015748799 0 -0.0019599876)
(0.0015746577 0 -0.0019629354)
(0.0015743609 0 -0.0019664239)
(0.0015739664 0 -0.001970549)
(0.0015734427 0 -0.0019754173)
(0.0015727481 0 -0.0019811483)
(0.0015718274 0 -0.0019878742)
(0.0015706072 0 -0.0019957382)
(0.0015689906 0 -0.0020048903)
(0.0015668502 0 -0.0020154818)
(0.001564022 0 -0.0020276563)
(0.0015603138 0 -0.002041405)
(0.0015554846 0 -0.0020565965)
(0.001549202 0 -0.0020730217)
(0.0015410356 0 -0.0020902303)
(0.0015304575 0 -0.0021074341)
(0.0015168389 0 -0.0021233632)
(0.0014994939 0 -0.0021358624)
(0.0014777016 0 -0.0021416144)
(0.0014506902 0 -0.0021363059)
(0.0014177605 0 -0.0021143414)
(0.0013784502 0 -0.002068422)
(0.0013326122 0 -0.0019901014)
(0.0012805021 0 -0.0018705883)
(0.00122278 0 -0.0017015569)
(0.0011603508 0 -0.0014765179)
(0.0010944373 0 -0.0011912877)
(0.0010263778 0 -0.00084556678)
(0.00095711508 0 -0.00044439654)
(0.00088725494 0 3.2877685e-06)
(0.00081739756 0 0.00048516578)
(0.00074819065 0 0.00098676736)
(0.00068033422 0 0.0014924308)
(0.00061454843 0 0.0019863371)
(0.00055157058 0 0.0024538979)
(0.00049206304 0 0.0028824292)
(0.00043655454 0 0.003261918)
(0.00038542868 0 0.0035844884)
(0.00033881225 0 0.0038447771)
(0.00029667215 0 0.0040390121)
(0.00025871458 0 0.0041636329)
(0.00022442578 0 0.004212349)
(0.0001933293 0 0.0041778115)
(0.00016507641 0 0.0040514728)
(0.00013907274 0 0.0038221371)
(0.00011462994 0 0.0034726755)
(9.0366937e-05 0 0.0029743021)
(6.4558371e-05 0 0.0022799102)
(3.4840416e-05 0 0.0013085421)
(0 0 0)
(0.0015648669 0 -0.0021211478)
(0.0015646074 0 -0.0021216846)
(0.0015643589 0 -0.0021247834)
(0.00156403 0 -0.002128451)
(0.0015635959 0 -0.0021327884)
(0.0015630236 0 -0.0021379083)
(0.0015622691 0 -0.0021439369)
(0.0015612744 0 -0.0021510144)
(0.0015599626 0 -0.002159293)
(0.0015582324 0 -0.0021689327)
(0.0015559508 0 -0.0021800955)
(0.0015529532 0 -0.0021929189)
(0.0015490475 0 -0.0022073837)
(0.0015439795 0 -0.0022233696)
(0.0015374006 0 -0.0022406774)
(0.0015288699 0 -0.0022588522)
(0.0015178472 0 -0.0022770886)
(0.0015037038 0 -0.0022940689)
(0.0014857742 0 -0.0023073784)
(0.0014633273 0 -0.0023136877)
(0.001435589 0 -0.0023087658)
(0.0014019286 0 -0.0022866531)
(0.0013619619 0 -0.0022398114)
(0.0013156171 0 -0.0021597557)
(0.0012632495 0 -0.0020376362)
(0.0012055992 0 -0.001865181)
(0.0011436125 0 -0.0016363541)
(0.0010785842 0 -0.0013468359)
(0.0010117877 0 -0.00099642597)
(0.00094398752 0 -0.0005909345)
(0.00087569893 0 -0.0001393543)
(0.00080744613 0 0.00034617754)
(0.0007398043 0 0.00085144736)
(0.00067341442 0 0.0013611085)
(0.00060895349 0 0.0018595842)
(0.00054713044 0 0.0023324356)
(0.00048859793 0 0.0027670621)
(0.00043388594 0 0.0031533479)
(0.00038338987 0 0.0034832561)
(0.00033725912 0 0.0037512296)
(0.00029548144 0 0.0039531949)
(0.00025779239 0 0.0040855878)
(0.00022371237 0 0.0041422176)
(0.00019278158 0 0.0041154486)
(0.00016465153 0 0.0039967496)