/*--------------------------------*- C++ -*----------------------------------*\
  =========                 |
  \\      /  F ield         | OpenFOAM: The Open Source CFD Toolbox
   \\    /   O peration     | Website:  https://openfoam.org
    \\  /    A nd           | Version:  8
     \\/     M anipulation  |
\*---------------------------------------------------------------------------*/
FoamFile
{
    version     2.0;
    format      ascii;
    class       volScalarField;
    location    "0.0900078";
    object      rho;
}
// * * * * * * * * * * * * * * * * * * * * * * * * * * * * * * * * * * * * * //

dimensions      [1 -3 0 0 0 0 0];

internalField   nonuniform List<scalar> 
20000
(
0.9054273
0.90591412
0.90909617
0.91646569
0.93126473
0.95864629
0.96730541
0.97017508
0.96831547
0.97023201
0.96954588
0.97131695
0.9714792
0.97345647
0.97444102
0.97691735
0.97887424
0.98216625
0.98540974
0.9899472
0.99491252
1.0011871
1.0083172
1.0168739
1.0267007
1.0381922
1.0517268
1.0659982
1.0806782
1.0949727
1.1083962
1.1204566
1.1308683
1.1395886
1.1466831
1.1523447
1.1567331
1.1601336
1.1627565
1.1648053
1.1663234
1.1676172
1.1688339
1.1700056
1.1707123
1.1709984
1.1710416
1.1694828
1.1683579
1.16816
0.89951082
0.90038366
0.90394697
0.91194743
0.92795104
0.95536335
0.96204498
0.96479065
0.96293525
0.96488257
0.96421044
0.96603392
0.96622373
0.9682729
0.96931171
0.97188761
0.97394796
0.97739093
0.98081036
0.98555953
0.99077183
0.99732093
1.0048053
1.0138312
1.0243234
1.0367327
1.0509943
1.0659103
1.0807993
1.0953947
1.1089432
1.1210108
1.1313683
1.1400054
1.1470094
1.152596
1.1569234
1.160282
1.162878
1.1649026
1.1664037
1.1676928
1.1689626
1.170104
1.1707678
1.171042
1.1709954
1.1694289
1.1683364
1.1681774
0.89394563
0.89509968
0.89903176
0.90764529
0.9249928
0.95206863
0.9568591
0.95962639
0.95777833
0.95977921
0.9591183
0.96099889
0.96121968
0.96333905
0.96444012
0.96711567
0.96929001
0.97287914
0.97647151
0.98141752
0.9868626
0.99370083
1.001604
1.0112324
1.0226126
1.0361561
1.05091
1.0659713
1.0812827
1.0960632
1.1096796
1.1217178
1.1319804
1.1405
1.147387
1.1528771
1.1571287
1.1604384
1.1630063
1.1650073
1.1664933
1.1677854
1.1691177
1.1702546
1.1708767
1.1711067
1.170902
1.1692636
1.1683521
1.1681682
0.88863192
0.89014348
0.89445662
0.90367179
0.92249008
0.94899745
0.95196705
0.95474453
0.95289873
0.95494575
0.95430046
0.95624104
0.95649852
0.95869836
0.95987357
0.9626662
0.96496883
0.96871744
0.97248376
0.97762912
0.98333332
0.99054211
0.99901822
1.0094714
1.0219503
1.0359719
1.0509024
1.0665263
1.0821527
1.097104
1.1107326
1.1226775
1.1327932
1.1411517
1.1478867
1.1532515
1.1574048
1.1606471
1.1631703
1.165135
1.1665964
1.1678894
1.1692701
1.1703664
1.1709584
1.1711785
1.1707661
1.1692094
1.1683513
1.1681676
0.88377757
0.88567612
0.89035425
0.90012217
0.92047003
0.94597112
0.94740782
0.95022247
0.94838801
0.950489
0.9498653
0.95187279
0.95217563
0.95446538
0.95572559
0.95864171
0.96107552
0.96497983
0.96892923
0.97429941
0.98032991
0.98804983
0.9973222
1.0087588
1.0217168
1.0359936
1.0514614
1.0675008
1.0834173
1.0984577
1.1120338
1.1238311
1.1337533
1.1419131
1.1484671
1.1536835
1.1577215
1.1608844
1.1633542
1.1652763
1.1667113
1.1680105
1.1694247
1.1704816
1.1710439
1.1712483
1.1706178
1.1691353
1.1683462
1.1681674
0.87917054
0.88152542
0.88664374
0.89697751
0.91892219
0.94308732
0.94325922
0.94613153
0.94431261
0.94647307
0.94587673
0.94795747
0.94831405
0.95070183
0.95205352
0.95509302
0.9576566
0.96172373
0.96589207
0.97156378
0.97806102
0.98653882
0.99664188
1.0085107
1.021727
1.0365451
1.0524972
1.0689536
1.0850759
1.1001424
1.1135998
1.1251906
1.1348715
1.1427948
1.1491384
1.154183
1.1580878
1.1611577
1.1635627
1.1654336
1.1668402
1.1681515
1.1695788
1.1705834
1.1711145
1.1713079
1.1704564
1.1690753
1.1683334
1.1681696
0.87534214
0.87808747
0.88360706
0.89444538
0.91792991
0.94046978
0.93961481
0.94253906
0.9407328
0.942953
0.94238833
0.94455001
0.94496828
0.9474579
0.94890031
0.95206034
0.95476
0.95901325
0.96348117
0.96958878
0.97681534
0.98593309
0.9964137
1.0085119
1.0222544
1.0376314
1.0540759
1.0708567
1.0871161
1.1021311
1.115403
1.1267319
1.1361271
1.1437796
1.1498865
1.1547388
1.158495
1.1614606
1.163791
1.1656038
1.166983
1.1683169
1.1697363
1.1706794
1.1711717
1.1713442
1.1703043
1.1690108
1.168318
1.1681719
0.87184007
0.87506519
0.88106272
0.89241814
0.9173584
0.93809039
0.93643921
0.93942976
0.93764827
0.93994323
0.9394242
0.9416754
0.94215663
0.94474369
0.94627734
0.94956992
0.95245232
0.95696482
0.96185588
0.96860864
0.97632289
0.98575134
0.99642104
1.0090267
1.0233573
1.03929
1.0561659
1.0732092
1.0895231
1.1044121
1.1174319
1.1284445
1.1375114
1.144861
1.1507069
1.1553482
1.1589416
1.1617921
1.1640381
1.1657859
1.1671399
1.1685093
1.1698963
1.1707681
1.1712153
1.1713598
1.1701622
1.1689496
1.1683008
1.1681747
0.86893186
0.87260228
0.87912436
0.89102803
0.91722765
0.93604716
0.93379177
0.93684891
0.93509536
0.93746862
0.93699538
0.93932974
0.93986773
0.94255522
0.94420958
0.94768318
0.95084407
0.95581199
0.96118105
0.96822283
0.97620028
0.98576935
0.99695528
1.0101286
1.0250486
1.0415008
1.0587582
1.0759833
1.0922717
1.1069585
1.1196623
1.1303078
1.1390081
1.1460263
1.1515899
1.1560039
1.1594223
1.1621486
1.1643013
1.1659781
1.1673095
1.1687269
1.1700588
1.1708534
1.1712505
1.1713638
1.1700315
1.1688906
1.1682838
1.1681778
0.86645327
0.87067622
0.87775995
0.89028664
0.91748279
0.93438269
0.93167073
0.93479624
0.93306605
0.93550849
0.93506604
0.93747726
0.93809638
0.94092399
0.94277583
0.94657449
0.95010298
0.95534784
0.96092831
0.96814127
0.9762603
0.98635199
0.9980718
1.0118288
1.027322
1.0442551
1.0618284
1.0791579
1.0953377
1.1097479
1.1220741
1.1323049
1.1406033
1.1472648
1.1525276
1.1567001
1.1599333
1.1625276
1.1645787
1.1661792
1.1674897
1.1689566
1.1702254
1.1709471
1.1712821
1.1713621
1.1699122
1.1688358
1.1682676
1.1681798
0.86463039
0.86933445
0.87700339
0.89024958
0.91809612
0.93314324
0.93007551
0.93326992
0.93154591
0.93404588
0.93361936
0.93612829
0.93694557
0.94003262
0.94212274
0.94612217
0.94981244
0.95522009
0.96090617
0.96832583
0.97693624
0.98748695
0.99977684
1.0141116
1.0301543
1.0475216
1.0653448
1.0826968
1.0986873
1.1127495
1.124641
1.1344145
1.1422804
1.1485639
1.1535104
1.1574299
1.1604696
1.1629256
1.164869
1.1663884
1.1676783
1.1691829
1.1703919
1.1710541
1.1713178
1.1713326
1.1698034
1.1687851
1.1682526
1.168181
0.86325589
0.8684527
0.87675429
0.89087151
0.91896936
0.93230154
0.92891551
0.93221685
0.93048787
0.93312611
0.93279446
0.93550642
0.93646799
0.93967318
0.94186418
0.94598326
0.94975783
0.95524424
0.96125077
0.96907944
0.97812344
0.98920254
1.0020577
1.0169624
1.0335268
1.051278
1.0692788
1.0865709
1.1022914
1.1159368
1.1273402
1.1366177
1.1440244
1.1499119
1.1545297
1.1581871
1.1610265
1.1633391
1.1651709
1.1666058
1.1678739
1.1693982
1.1705467
1.171159
1.1713821
1.1712458
1.1697036
1.1687376
1.1682384
1.168182
0.86235616
0.86802489
0.8769721
0.89212681
0.9200298
0.93181444
0.92827098
0.93162855
0.9300028
0.93272128
0.93253808
0.93535007
0.93628698
0.93957035
0.94181154
0.9459887
0.94995994
0.95576411
0.96211256
0.9703308
0.97986856
0.99146351
1.0048878
1.0203501
1.0374049
1.0554852
1.0735894
1.0907392
1.106112
1.1192769
1.1301445
1.1388928
1.1458186
1.1512964
1.1555761
1.1589645
1.1615992
1.1637637
1.1654806
1.1668322
1.1680773
1.1696003
1.1706876
1.1712575
1.1714598
1.1711125
1.1696105
1.168692
1.1682247
1.1681832
0.86178697
0.86790861
0.87752235
0.8939119
0.9211623
0.93163258
0.92799452
0.93141946
0.92984178
0.93262115
0.93247103
0.93531189
0.93625638
0.93959403
0.94198626
0.9464046
0.950646
0.95673536
0.96346249
0.97210581
0.98212987
0.99425748
1.0082485
1.0242559
1.0417658
1.0601162
1.0782451
1.0951692
1.1101185
1.1227425
1.133031
1.1412213
1.1476484
1.1527061
1.1566411
1.1597561
1.1621829
1.1641969
1.165796
1.1670672
1.1682912
1.1697919
1.1708145
1.1713443
1.1715308
1.1709604
1.1695161
1.1686471
1.1682114
1.1681845
0.86146893
0.86805642
0.87834192
0.8961666
0.92228849
0.93165367
0.92794252
0.93140274
0.92981964
0.93266554
0.93246874
0.93540242
0.93648155
0.94002134
0.94261296
0.94725095
0.95177096
0.95818206
0.96529418
0.97436267
0.98489006
0.99755131
1.0121092
1.0286452
1.0465718
1.0651276
1.0832013
1.0998172
1.1142718
1.1263007
1.1359732
1.1435825
1.1494979
1.1541292
1.1577159
1.1605552
1.1627728
1.1646349
1.1661162
1.1673117
1.1685198
1.1699768
1.1709275
1.171415
1.1715847
1.1707891
1.1694211
1.1686028
1.1681983
1.1681857
0.86133274
0.86838919
0.87934496
0.89875973
0.92335236
0.93178718
0.92800676
0.93155105
0.92997405
0.93290061
0.93280004
0.93584378
0.93713868
0.94085893
0.94365377
0.94852861
0.95333819
0.96006837
0.96757932
0.97708758
0.98812525
1.0013293
1.0164532
1.0335001
1.0517991
1.0704904
1.0884249
1.1046505
1.1185418
1.1299255
1.1389492
1.145959
1.1513541
1.1555556
1.158793
1.1613561
1.1633646
1.1650746
1.1664387
1.1675652
1.1687671
1.1701578
1.1710292
1.1714687
1.1716055
1.1706197
1.1693273
1.1685595
1.1681854
1.1681868
0.86154067
0.86907116
0.88071431
0.90187707
0.92457249
0.93228196
0.92846531
0.93204978
0.93057191
0.93368066
0.93360109
0.93681156
0.93820981
0.94210185
0.94509744
0.95020634
0.95531184
0.9623739
0.9702935
0.98025062
0.99181013
1.005564
1.0212514
1.0387872
1.0574083
1.0761609
1.0938707
1.1096266
1.1228912
1.1335857
1.1419346
1.148332
1.1532027
1.1569747
1.1598643
1.1621529
1.1639538
1.1655125
1.1667617
1.1678268
1.1690332
1.1703369
1.1711238
1.17151
1.1716124
1.1704543
1.169236
1.1685176
1.1681728
1.1681877
0.86215535
0.87015081
0.88250151
0.90548861
0.92596813
0.93303925
0.92928725
0.93296263
0.93156326
0.9346477
0.93478392
0.93811725
0.93963293
0.9436963
0.94690359
0.95225547
0.95767046
0.96507381
0.97341606
0.98383641
0.99593025
1.010244
1.0264915
1.0444897
1.0633753
1.0821089
1.0995059
1.1147134
1.127291
1.1372572
1.1449101
1.1506868
1.1550323
1.1583778
1.1609233
1.1629407
1.1645367
1.1659458
1.167083
1.1680941
1.1693061
1.1705199
1.1712242
1.1715451
1.1716114
1.1702942
1.1691482
1.1684777
1.1681602
1.1681875
0.86306568
0.87153991
0.8846357
0.90946532
0.92751311
0.93410621
0.93044974
0.93420183
0.93285591
0.93607395
0.93624145
0.93971003
0.9413749
0.94562174
0.94905123
0.95465568
0.96039149
0.96814729
0.97692584
0.98782303
1.0004657
1.0153474
1.0321485
1.0505747
1.0696603
1.0882889
1.1052853
1.119869
1.1317057
1.1409116
1.1478545
1.1530073
1.156831
1.1597561
1.1619631
1.1637148
1.1651098
1.1663717
1.1674005
1.1683631
1.169574
1.1707019
1.1713343
1.1715867
1.1716026
1.1701412
1.1690649
1.16844
1.1681478
1.1681861
0.86422297
0.87319675
0.88709015
0.91370807
0.92918971
0.93556806
0.93190116
0.93570205
0.93438323
0.93771426
0.93798068
0.94160526
0.94342141
0.94785738
0.95152144
0.95738569
0.96345619
0.97157781
0.98080962
0.99220167
1.0054097
1.0208688
1.038213
1.0570258
1.0762378
1.0946698
1.1111758
1.125062
1.1361078
1.1445279
1.1507525
1.1552822
1.1585895
1.1611025
1.1629786
1.1644707
1.16567
1.1667879
1.1677121
1.1686295
1.1698283
1.1708724
1.1714433
1.171651
1.171533
1.169998
1.1689867
1.1684044
1.1681354
1.1681834
0.86561518
0.87509553
0.88985273
0.91810939
0.93100589
0.93718944
0.93354801
0.93744569
0.93617046
0.93964153
0.94000895
0.94377756
0.94575592
0.95038775
0.95429617
0.96043073
0.96684888
0.97535063
0.98505324
0.99695897
1.0107486
1.0267914
1.0446611
1.0638092
1.0830659
1.1012059
1.1171317
1.1302517
1.1404648
1.1480826
1.1535878
1.1574989
1.1602982
1.1624105
1.1639648
1.1652044
1.1662143
1.1671924
1.1680165
1.1688908
1.170066
1.1710269
1.1715428
1.1717266
1.1714056
1.169866
1.168914
1.1683711
1.168123
1.1681793
0.86723853
0.87722475
0.8929426
0.92254633
0.93283405
0.9390578
0.93543286
0.93944909
0.93822105
0.94182138
0.94229381
0.94621639
0.94836368
0.95319597
0.95736067
0.96377439
0.97055718
0.97945682
0.98965209
1.0020932
1.0164828
1.0331128
1.0514842
1.0709055
1.0901166
1.1078638
1.1231191
1.135408
1.1447548
1.1515613
1.1563487
1.1596485
1.1619505
1.1636752
1.1649189
1.1659123
1.1667396
1.167584
1.1683131
1.1691466
1.1702892
1.1711622
1.1716252
1.1717889
1.1712385
1.1697461
1.1688464
1.1683399
1.1681105
1.1681737
0.86914809
0.87961849
0.89640831
0.92708297
0.93502928
0.94116459
0.93755535
0.94168356
0.94052804
0.94424252
0.94482616
0.94890233
0.9512284
0.95626699
0.96070157
0.96740764
0.97457239
0.98388968
0.99459975
1.0075992
1.0226034
1.0398193
1.0586561
1.0782786
1.097344
1.1145944
1.1290923
1.1404954
1.1489556
1.1549483
1.1590202
1.1617191
1.1635398
1.1648919
1.1658378
1.1665912
1.1672422
1.1679614
1.1686023
1.1694004
1.1705022
1.1712786
1.171689
1.1718227
1.1710493
1.1696299
1.1687832
1.1683108
1.1680979
1.1681664
0.87124387
0.88218344
0.90017221
0.93164878
0.93728015
0.94347196
0.93988679
0.94413377
0.94304378
0.94688879
0.94758578
0.95182308
0.95433635
0.95959086
0.96431012
0.97132207
0.97889021
0.98864856
0.99989952
1.0134812
1.0291152
1.0469085
1.0661656
1.0859041
1.1047156
1.1213618
1.1350199
1.145495
1.1530587
1.1582346
1.1615896
1.1637012
1.1650625
1.1660572
1.1667182
1.1672402
1.1677195
1.1683236
1.1688847
1.1696563
1.1707095
1.1713873
1.171736
1.1718356
1.1708538
1.1695191
1.1687248
1.1682838
1.1680851
1.1681573
0.87362045
0.88500501
0.90431188
0.93627088
0.93974903
0.9459985
0.94243732
0.94679366
0.94577438
0.94974288
0.95056413
0.95496521
0.95767975
0.96315986
0.96818117
0.97551608
0.98351018
0.99373455
1.0055523
1.0197392
1.0360117
1.0543649
1.073982
1.0937399
1.1121812
1.1281176
1.1408659
1.1503899
1.157053
1.1614028
1.1640409
1.1655838
1.1665141
1.1671667
1.1675541
1.1678597
1.1681713
1.1686691
1.1691606
1.1699159
1.1709102
1.171498
1.1717756
1.171839
1.170665
1.1694151
1.1686717
1.1682591
1.168072
1.1681463
0.87626691
0.88803854
0.90875909
0.94089786
0.94236142
0.94869854
0.94518063
0.94964019
0.94869129
0.95279319
0.95375002
0.95832434
0.96125436
0.966971
0.97231268
0.97998925
0.98843588
0.99915472
1.0115669
1.0263817
1.0432979
1.0621835
1.0820877
1.1017549
1.119704
1.134829
1.1466154
1.1551777
1.1609253
1.1644282
1.1663666
1.167365
1.1678906
1.1682176
1.1683385
1.1684502
1.1686018
1.1689965
1.1694294
1.1701756
1.1710967
1.1716127
1.1718265
1.1718374
1.1704893
1.1693197
1.1686242
1.1682365
1.1680583
1.1681332
0.87909749
0.891241
0.91346746
0.94547154
0.94512731
0.95156879
0.94810432
0.95266528
0.95180328
0.95604184
0.95714345
0.96189804
0.96505779
0.97102285
0.97670642
0.98474738
0.99367446
1.0049161
1.017949
1.0334097
1.0509664
1.0703426
1.0904448
1.1098993
1.1272318
1.1414575
1.1522543
1.1598413
1.1646292
1.1672911
1.1685574
1.1690513
1.1691839
1.1692084
1.1690695
1.1690059
1.1690184
1.169305
1.1696896
1.1704213
1.1712677
1.1717264
1.171903
1.1718084
1.170331
1.169235
1.1685825
1.1682156
1.168044
1.168118
0.88224839
0.89470025
0.91848359
0.95000942
0.94806784
0.9546176
0.95120513
0.95587039
0.95510385
0.9594803
0.96074114
0.96568383
0.96909071
0.97531818
0.98136789
0.98979803
0.9992361
1.0110308
1.0247104
1.0408331
1.0590193
1.0788305
1.0990263
1.1181354
1.1347293
1.1479882
1.1577796
1.1643366
1.1681412
1.169976
1.1706179
1.1706455
1.1704041
1.1701401
1.169754
1.1695113
1.1694239
1.1695962
1.1699396
1.1706494
1.1714186
1.1718342
1.1719889
1.1717359
1.1701915
1.1691612
1.168546
1.1681961
1.1680288
1.1681005
0.88558218
0.89831669
0.92369705
0.95445415
0.95115361
0.9578205
0.95447301
0.9592502
0.95858891
0.96311554
0.96454284
0.96968388
0.97335559
0.97986394
0.98630663
0.99515415
1.0051325
1.0175087
1.0318576
1.048652
1.0674433
1.087616
1.1077836
1.1264085
1.1421545
1.1544063
1.1631559
1.1686157
1.1714281
1.1724847
1.1725751
1.1721433
1.1715452
1.1710087
1.170388
1.1699785
1.1698061
1.1698746
1.1701784
1.1708623
1.1715518
1.171927
1.1720645
1.1716292
1.1700729
1.1690983
1.1685141
1.1681775
1.1680127
1.1680811
0.88925086
0.90220491
0.92912874
0.95884586
0.95442468
0.96119794
0.9579226
0.96281006
0.96226373
0.96694324
0.96855251
0.97390041
0.977862
0.98467086
0.99153518
1.0008283
1.0113772
1.0243637
1.0394032
1.0568742
1.0762334
1.0966772
1.1166792
1.1346807
1.1494886
1.1607079
1.1683266
1.1726449
1.1744847
1.1748667
1.1744121
1.1735397
1.1726099
1.1718158
1.1709747
1.1704101
1.1701544
1.1701457
1.1704058
1.1710659
1.1716714
1.1719937
1.1721041
1.1714949
1.1699735
1.1690448
1.168486
1.1681596
1.1679959
1.1680598
0.89316161
0.90634723
0.93472915
0.96318008
0.95785767
0.96474164
0.96154104
0.96654599
0.96612416
0.97096422
0.97277515
0.97834513
0.98262193
0.98975247
0.99706805
1.0068343
1.0179827
1.0316058
1.0473539
1.0654944
1.0853675
1.1059689
1.1256574
1.1429034
1.1567113
1.1668452
1.1732338
1.1763942
1.1773544
1.177114
1.1761215
1.1748355
1.1735975
1.1725616
1.1715157
1.1708111
1.1704665
1.170408
1.1706216
1.1712622
1.1717772
1.1720413
1.1721199
1.1713412
1.1698865
1.1689986
1.1684616
1.1681426
1.1679784
1.1680367
0.89732378
0.91077689
0.94045093
0.96750027
0.96146582
0.96845975
0.96533464
0.97046212
0.97017847
0.97518756
0.97722459
0.9830331
0.98765052
0.99512356
1.0029181
1.0131865
1.0249632
1.0392504
1.0557213
1.0745159
1.094829
1.1154573
1.1346765
1.1510514
1.1638181
1.1727508
1.1778374
1.1798741
1.180087
1.1792019
1.1777052
1.1760329
1.1745106
1.1732479
1.1720109
1.1711765
1.1707526
1.1706588
1.1708257
1.1714494
1.1718762
1.1720815
1.1721251
1.1711836
1.1698035
1.1689572
1.168441
1.1681277
1.167961
1.1680118
0.90172329
0.91548503
0.94621766
0.97179641
0.96522206
0.97233912
0.96930759
0.97456809
0.97444146
0.97963479
0.98191781
0.98797932
0.99296067
1.0007978
1.0091
1.0198996
1.0323324
1.0473084
1.0645097
1.0839248
1.1045817
1.1250856
1.1436834
1.1590948
1.1707641
1.1783523
1.1821064
1.1831549
1.1826401
1.1811359
1.1791639
1.1771337
1.1753502
1.1738755
1.1724598
1.1715081
1.1710163
1.1708966
1.171019
1.1716218
1.1719746
1.1721253
1.1721245
1.1710242
1.1697203
1.1689173
1.1684233
1.1681161
1.1679453
1.1679851
0.90635031
0.92050415
0.95202355
0.97612221
0.96916502
0.97639837
0.97348313
0.97888877
0.97893527
0.98432615
0.98686815
0.9931932
0.99856448
1.0067876
1.0156278
1.0269889
1.0401066
1.0557957
1.0737277
1.0937134
1.1145949
1.1348116
1.1526453
1.1670263
1.1774709
1.1836077
1.1860682
1.1862608
1.1850052
1.1829165
1.180502
1.1781416
1.1761193
1.174446
1.1728624
1.1718077
1.1712607
1.171121
1.171204
1.1717707
1.1720698
1.1721914
1.1721012
1.1708631
1.1696342
1.1688755
1.1684058
1.1681078
1.1679346
1.1679568
0.9112261
0.92587991
0.95788103
0.98052439
0.97332447
0.9806819
0.97788983
0.98344077
0.98367028
0.98926106
0.99208207
0.99868363
1.0044733
1.0131095
1.0225175
1.0344708
1.0483004
1.0647233
1.0833718
1.1038533
1.1248158
1.1445764
1.161523
1.1748135
1.1838427
1.188476
1.1897961
1.1891542
1.1871831
1.1845473
1.1817224
1.1790594
1.1768198
1.1749602
1.1732199
1.1720777
1.171487
1.1713317
1.1713825
1.1718948
1.1721537
1.172264
1.1720412
1.1707012
1.169545
1.1688297
1.1683861
1.1681033
1.1679281
1.1679271
0.91642498
0.93166561
0.96380512
0.98506996
0.97771842
0.98519316
0.98252338
0.98821742
0.98864336
0.99443839
0.9975687
1.0044649
1.010704
1.0197793
1.0297855
1.0423628
1.0569332
1.0741061
1.0934425
1.1143207
1.135201
1.1543412
1.1702994
1.1823709
1.1898352
1.1929818
1.1933188
1.1918236
1.1891786
1.1860338
1.1828306
1.1798917
1.1774551
1.17542
1.1735347
1.1723203
1.1716961
1.1715285
1.1715519
1.1720025
1.17222
1.1723091
1.1719519
1.1705413
1.1694553
1.1687831
1.1683661
1.1681
1.1679211
1.1678966
0.92188174
0.93781418
0.96974489
0.98981456
0.98230305
0.98989518
0.98736609
0.99321366
0.99386035
0.99987507
1.003345
1.0105543
1.0172727
1.0268142
1.0374494
1.0506844
1.0660225
1.0839507
1.1039225
1.1250684
1.145688
1.1640549
1.1789443
1.1895936
1.1953935
1.1972017
1.196597
1.194272
1.1909958
1.1873808
1.1838308
1.180642
1.178028
1.1758275
1.1738093
1.1725376
1.1718878
1.1717099
1.1717145
1.1720952
1.1722692
1.1723322
1.1718351
1.1703875
1.1693687
1.168738
1.1683464
1.1680962
1.1679117
1.1678665
0.92759621
0.94429696
0.97566865
0.9946856
0.98708413
0.99480394
0.9924339
0.99845443
0.99934229
1.0055958
1.0094273
1.0169685
1.0241937
1.0342304
1.0455288
1.0594579
1.07559
1.0942655
1.1147968
1.1360549
1.1562326
1.1736866
1.1873975
1.196409
1.2005195
1.2011913
1.199611
1.1965055
1.1926429
1.1885952
1.184729
1.1813156
1.1785424
1.1761852
1.1740467
1.1727323
1.1720631
1.171875
1.1718684
1.1721758
1.1723043
1.1723403
1.1716955
1.1702438
1.1692881
1.1686956
1.168327
1.1680908
1.1678997
1.1678372
0.93356461
0.95110323
0.9816096
0.99954885
0.99210609
0.99995589
0.99776225
1.0039606
1.0051117
1.0116121
1.0158294
1.0237183
1.0314819
1.0420499
1.0540471
1.0687084
1.0856502
1.1050462
1.1260246
1.1472191
1.1667739
1.1831992
1.1955364
1.2027569
1.2052895
1.2049049
1.2023667
1.1985297
1.1941258
1.1896828
1.1855305
1.1819166
1.1790011
1.1764944
1.1742503
1.1729064
1.1722232
1.1720224
1.1720081
1.1722516
1.1723395
1.1723429
1.1715353
1.1701131
1.1692146
1.1686564
1.1683077
1.1680835
1.1678852
1.1678086
0.9398732
0.95827348
0.98762476
1.004872
0.99738403
1.0053617
1.0033623
1.0097432
1.0111772
1.0179291
1.0225605
1.030819
1.0391589
1.0502975
1.0630326
1.0784623
1.0962209
1.1162852
1.1375711
1.1585097
1.1772735
1.1925621
1.2032498
1.2086013
1.209796
1.2083142
1.2048711
1.2003545
1.1954538
1.1906516
1.186242
1.18245
1.1794062
1.176754
1.1744256
1.173061
1.1723675
1.1721521
1.1721285
1.1723194
1.1723866
1.1723266
1.1713646
1.1699953
1.1691484
1.1686204
1.1682888
1.1680741
1.1678687
1.1677804
0.9464795
0.96577192
0.99372933
1.0103204
1.0029191
1.011028
1.0092375
1.0158052
1.0175384
1.0245539
1.0296344
1.0382938
1.0472521
1.0590055
1.0725178
1.0887442
1.1073082
1.1279534
1.1493761
1.16986
1.1876769
1.2016466
1.2104701
1.2140137
1.2139949
1.2114227
1.2071313
1.2019879
1.1966346
1.1915082
1.1868688
1.1829191
1.1797586
1.1769638
1.1745781
1.1731959
1.1724949
1.1722677
1.172233
1.1723757
1.1724274
1.1722765
1.1711882
1.169888
1.1690878
1.1685876
1.1682712
1.1680623
1.1678506
1.1677526
0.95340285
0.97362766
0.99999799
1.016048
1.0087292
1.0169601
1.0153878
1.0221449
1.0242014
1.0315018
1.0370778
1.0461758
1.055796
1.0682087
1.0825346
1.0995797
1.1189145
1.1400216
1.1613863
1.1812211
1.1979504
1.2103345
1.2171425
1.2190853
1.217861
1.2142392
1.2091595
1.2034417
1.1976784
1.1922613
1.1874174
1.1833276
1.1800604
1.1771346
1.1747068
1.1733114
1.1726043
1.1723668
1.1723265
1.172419
1.1724469
1.1721963
1.171012
1.1697868
1.1690298
1.1685565
1.1682569
1.1680481
1.1678312
1.1677254
0.96051634
0.98176438
1.0064159
1.0219915
1.0147814
1.0231373
1.0218077
1.0287768
1.0311922
1.0388097
1.0449266
1.0545047
1.0648275
1.0779452
1.0931153
1.1109844
1.131023
1.1524348
1.1735284
1.1925254
1.2080058
1.2185071
1.2232846
1.2238311
1.2213748
1.216772
1.2109655
1.2047256
1.1985939
1.1929175
1.187892
1.1836784
1.1803164
1.1772761
1.174813
1.1734091
1.1727001
1.1724547
1.1724097
1.1724571
1.1724541
1.1720909
1.1708417
1.1696891
1.1689741
1.1685269
1.1682439
1.1680318
1.1678109
1.1676989
0.96784328
0.99018109
1.0131335
1.0281055
1.0210612
1.0295754
1.0285389
1.035738
1.0385737
1.0465183
1.0532221
1.0633187
1.0743856
1.0882516
1.1042909
1.1229691
1.1436112
1.1651401
1.1857458
1.2037256
1.2177072
1.2261052
1.2289894
1.2282129
1.2245526
1.2190355
1.212564
1.2058525
1.1993913
1.1934837
1.1882971
1.1839771
1.1805365
1.1773885
1.1748976
1.1734923
1.1727865
1.1725329
1.172478
1.1725007
1.1724568
1.1719648
1.1706795
1.1695955
1.1689205
1.1684981
1.1682305
1.1680134
1.16779
1.1676734
0.97535896
0.99883823
1.019413
1.0345192
1.0276825
1.0363694
1.0356428
1.0430843
1.0463686
1.0546699
1.0619999
1.0726575
1.0845131
1.099167
1.1160861
1.1355278
1.1566306
1.1780599
1.1979619
1.2147536
1.2268984
1.23308
1.2343429
1.2321877
1.2274014
1.221042
1.2139669
1.2068327
1.2000777
1.193964
1.1886367
1.1842317
1.1807303
1.1774412
1.1749641
1.1735653
1.1728668
1.172606
1.1725338
1.1725241
1.1724449
1.1718216
1.1705268
1.1695066
1.1688691
1.1684695
1.1682158
1.1679935
1.1677687
1.1676489
0.98324935
1.0079509
1.0262577
1.0413126
1.0346793
1.0435308
1.0431332
1.0508316
1.0546109
1.0632978
1.0713022
1.0825696
1.0952522
1.1107283
1.1285194
1.1486459
1.1700294
1.1911276
1.2101108
1.2254867
1.2354924
1.2395219
1.2392933
1.2357779
1.2299394
1.2228091
1.2151899
1.2076778
1.2006605
1.1943643
1.18892
1.184453
1.1808926
1.1774626
1.1750213
1.173634
1.1729427
1.172672
1.1725766
1.1725364
1.1724105
1.171671
1.1703843
1.1694227
1.1688197
1.1684408
1.1681994
1.1679722
1.1677474
1.1676258
0.99127053
1.0174313
1.0337333
1.0484111
1.0420233
1.0510618
1.0510389
1.059018
1.0633385
1.0724515
1.0811794
1.0931047
1.1066489
1.1229681
1.1415962
1.1622831
1.1837309
1.2042568
1.2221123
1.2357479
1.2434046
1.2455295
1.2437996
1.2389882
1.23218
1.2243511
1.2162447
1.2083955
1.2011451
1.1946936
1.1891614
1.1846489
1.1809762
1.1774676
1.175076
1.1737024
1.1730121
1.1727236
1.1726006
1.1725423
1.172356
1.1715172
1.170252
1.1693435
1.1687724
1.1684128
1.1681811
1.1679501
1.1677262
1.1676039
0.99951432
1.0273631
1.0412046
1.0558935
1.0497916
1.0590214
1.0594139
1.0676941
1.0726082
1.0821838
1.0916864
1.1043118
1.1187436
1.1359112
1.1553081
1.1763916
1.1976605
1.2173741
1.2338841
1.2453924
1.2506749
1.2511079
1.2478582
1.2418404
1.2341445
1.2256864
1.2171445
1.208995
1.2015431
1.1949694
1.1893762
1.184813
1.1810123
1.1774646
1.1751125
1.1737673
1.173071
1.1727614
1.1726129
1.172546
1.1722834
1.1713625
1.1701287
1.1692682
1.1687271
1.1683866
1.168161
1.1679272
1.1677055
1.1675833
1.0080575
1.037786
1.0491211
1.0637949
1.0580144
1.0674398
1.0682981
1.0769127
1.0824797
1.0925553
1.1028729
1.1162417
1.131575
1.1495707
1.1696249
1.1908946
1.2117236
1.2303782
1.2452271
1.2543227
1.2573971
1.2562027
1.2514821
1.2443498
1.2358499
1.2268286
1.2178991
1.2094874
1.2018725
1.1952101
1.1895617
1.1848987
1.1810234
1.1774491
1.1751339
1.1738128
1.1731136
1.1727827
1.1726185
1.1725398
1.1721943
1.1712089
1.1700123
1.1691971
1.168684
1.1683615
1.168139
1.1679042
1.1676854
1.1675643
1.0168817
1.0487178
1.057403
1.0721444
1.066736
1.0763687
1.0777544
1.0867361
1.0930166
1.1036258
1.1147931
1.1289379
1.1451733
1.1639457
1.1845015
1.2057118
1.2258336
1.2431859
1.2559695
1.2625006
1.2636611
1.2607814
1.2546928
1.2465414
1.2373176
1.227794
1.2185227
1.209893
1.2021555
1.1954167
1.1896773
1.1849402
1.1810219
1.1774229
1.1751463
1.1738365
1.1731361
1.1727944
1.1726203
1.1725212
1.172091
1.1710584
1.1699022
1.1691296
1.168643
1.1683372
1.1681155
1.1678816
1.1676661
1.1675466
1.0260484
1.0602378
1.0661698
1.0810136
1.0760292
1.0858884
1.0878741
1.097208
1.1042708
1.1154486
1.1274954
1.1424446
1.1595592
1.1790148
1.1998633
1.2207365
1.2398707
1.2556211
1.2659637
1.2700164
1.2693901
1.2648642
1.2575084
1.2484344
1.2385638
1.2285956
1.2190329
1.2102345
1.2023946
1.1955444
1.1897363
1.1849564
1.1810027
1.1773891
1.1751514
1.1738482
1.1731482
1.1727999
1.172611
1.172489
1.1719751
1.1709128
1.1697998
1.1690658
1.1686035
1.1683132
1.1680909
1.1678592
1.167648
1.1675305
1.0356309
1.0724136
1.0754759
1.0904717
1.0859488
1.0960645
1.0986974
1.108419
1.1162943
1.128082
1.1410277
1.1567937
1.1747389
1.1947353
1.2156255
1.2358669
1.2537287
1.2674762
1.2751222
1.2770063
1.2745424
1.2684718
1.2599578
1.2500546
1.2396087
1.2292532
1.2194552
1.210522
1.202546
1.1956112
1.1897627
1.1849587
1.1809642
1.1773472
1.1751464
1.1738557
1.1731545
1.1727995
1.1725977
1.1724426
1.1718516
1.170772
1.1697043
1.1690053
1.1685654
1.1682891
1.1680656
1.1678368
1.167631
1.1675159
1.045673
1.0851753
1.0854105
1.1005777
1.096586
1.1069527
1.1102944
1.1204146
1.1291412
1.1415758
1.1554356
1.1720205
1.1907021
1.2110374
1.2316712
1.2509725
1.2672577
1.2785447
1.2835084
1.2834055
1.2791242
1.271626
1.2620637
1.2514215
1.2404702
1.2297906
1.2198081
1.2107201
1.2026258
1.1956421
1.1897723
1.1849432
1.1809093
1.177298
1.1751343
1.1738597
1.1731571
1.1727889
1.1725784
1.1723824
1.1717225
1.1706364
1.1696144
1.1689476
1.1685283
1.1682646
1.1680398
1.1678144
1.1676153
1.1675029
1.0562999
1.098624
1.0960636
1.1113964
1.1080162
1.1186073
1.1227089
1.1332424
1.1428649
1.1559915
1.1707722
1.1881402
1.2074106
1.2278273
1.2478809
1.2659181
1.2802184
1.288724
1.29125
1.2891695
1.2831624
1.274359
1.2638566
1.2525604
1.2411741
1.2302358
1.2200837
1.2108286
1.202664
1.1956527
1.1897673
1.1849075
1.18084
1.1772436
1.1751159
1.1738559
1.1731495
1.17277
1.1725518
1.1723095
1.1715899
1.1705066
1.1695294
1.1688922
1.1684919
1.1682395
1.1680137
1.1677927
1.1676009
1.1674914
1.0676181
1.1127629
1.1074933
1.122968
1.1202843
1.1310791
1.1359842
1.1469625
1.1575336
1.1714003
1.1870857
1.2051538
1.2247959
1.2449758
1.2641032
1.2805382
1.2923699
1.2980086
1.2983483
1.294277
1.2866801
1.2766979
1.2653606
1.2534939
1.2417464
1.2305988
1.2202434
1.2108822
1.2026763
1.1956456
1.1897405
1.1848548
1.1807587
1.1771857
1.1750912
1.1738437
1.173133
1.1727424
1.1725169
1.1722254
1.1714557
1.1703825
1.1694482
1.1688387
1.1684568
1.1682136
1.1679874
1.1677722
1.1675879
1.1674815
1.0797621
1.127564
1.1197543
1.1353108
1.1334071
1.1443822
1.1502336
1.1616894
1.1732407
1.1878794
1.2044099
1.2230194
1.242749
1.2623372
1.2801735
1.2945904
1.3035629
1.3065294
1.3047365
1.2987659
1.2897154
1.2786792
1.266607
1.2542539
1.2422152
1.2308464
1.2203257
1.2109039
1.2026679
1.1956156
1.1896969
1.1847871
1.1806679
1.1771256
1.1750602
1.1738233
1.1731077
1.1727063
1.172473
1.1721317
1.1713217
1.170264
1.1693703
1.1687869
1.1684225
1.168187
1.1679616
1.1677529
1.1675763
1.1674732
1.0927972
1.1428452
1.1328827
1.148464
1.1474546
1.1586677
1.1655334
1.1775534
1.190083
1.2054923
1.2227375
1.2416574
1.2611193
1.2797304
1.2958919
1.3077921
1.313743
1.3143342
1.3103759
1.3026586
1.2922996
1.280332
1.2676241
1.2548704
1.2425857
1.2309888
1.2203677
1.2108995
1.2026331
1.1955678
1.1896379
1.1847071
1.1805698
1.1770641
1.1750231
1.1737949
1.1730739
1.1726614
1.1724198
1.1720305
1.1711894
1.170151
1.1692956
1.1687366
1.1683887
1.1681595
1.1679365
1.1677347
1.1675662
1.1674664
1.1071339
1.1584431
1.1470271
1.1625076
1.1625799
1.1740829
1.1820628
1.1946773
1.2081598
1.2242547
1.2420101
1.2609256
1.2797242
1.2969527
1.3110066
1.3199465
1.3230414
1.3213343
1.3153123
1.3060004
1.2944765
1.2816946
1.2684489
1.2553699
1.2428219
1.2310652
1.2203757
1.2108671
1.2025789
1.1955048
1.189567
1.1846173
1.1804665
1.1770019
1.1749806
1.173759
1.1730317