/*--------------------------------*- C++ -*----------------------------------*\
  =========                 |
  \\      /  F ield         | OpenFOAM: The Open Source CFD Toolbox
   \\    /   O peration     | Website:  https://openfoam.org
    \\  /    A nd           | Version:  8
     \\/     M anipulation  |
\*---------------------------------------------------------------------------*/
FoamFile
{
    version     2.0;
    format      ascii;
    class       surfaceVectorField;
    location    "0.0900078";
    object      rhoUf;
}
// * * * * * * * * * * * * * * * * * * * * * * * * * * * * * * * * * * * * * //

dimensions      [1 -2 -1 0 0 0 0];

internalField   nonuniform List<vector> 
39600
(
(202.24691 -8.4662996e-17 5.1559673)
(187.38159 -1.5503262e-16 4.2275297)
(185.51021 -2.1985518e-16 4.899618)
(232.53905 0 5.8200996)
(222.47978 5.5834239e-17 5.2004822)
(220.45275 9.7755832e-17 6.0137227)
(256.22523 3.4700234e-17 6.2648025)
(246.96823 4.5546133e-17 5.606491)
(244.78434 7.9581875e-17 6.5186526)
(279.30366 1.1572207e-17 6.6350653)
(269.81321 3.7092624e-17 5.9829778)
(267.46378 -9.67257e-17 6.9713951)
(303.16736 -3.5980693e-17 6.9447219)
(293.31393 -3.2325628e-17 6.1131748)
(290.73252 -3.4632272e-17 7.2333706)
(318.3262 0 7.0665067)
(317.29477 -2.9496432e-17 6.7221718)
(315.39064 5.2031323e-17 7.8705284)
(321.9643 0 7.1181021)
(320.60479 0 5.957529)
(320.44666 0 7.2146582)
(322.5866 0 7.1146156)
(323.66569 -2.1054634e-17 7.2064549)
(323.59249 0 8.4000571)
(322.00247 0 7.0781817)
(321.33502 -1.1135244e-18 5.6049236)
(321.28022 0 6.8921747)
(322.26008 -6.9854128e-19 7.0563088)
(322.85043 1.2774958e-17 7.3427617)
(322.77001 -2.6004931e-20 8.5393656)
(321.94171 3.6941806e-18 7.0130291)
(321.59482 4.9990589e-21 5.5067437)
(321.52832 -7.7770176e-19 6.7843807)
(322.0493 2.6038825e-18 6.9741376)
(322.4099 4.9266744e-18 7.1931558)
(322.32523 5.1748306e-18 8.4037024)
(321.8317 -3.4974257e-18 6.9130052)
(321.67098 -6.2470636e-18 5.5710162)
(321.59047 -1.8946875e-17 6.8356687)
(321.85424 -1.5073815e-18 6.8482642)
(322.09048 -3.6210523e-18 6.8754195)
(321.99554 1.3177061e-17 8.1022397)
(321.6949 -1.668529e-18 6.756174)
(321.64512 2.1587006e-18 5.6532382)
(321.54726 -1.484089e-18 6.9078051)
(321.65867 1.0637132e-20 6.6495807)
(321.8411 5.5011627e-18 6.4721622)
(321.72974 -1.469945e-19 7.7141767)
(321.51259 -1.5018018e-18 6.5049708)
(321.54164 2.0648339e-18 5.6316591)
(321.42072 1.1910262e-20 6.8853293)
(321.42534 -2.1430384e-18 6.3284665)
(321.59397 -1.6518271e-18 6.000653)
(321.4574 -1.6870261e-18 7.2602203)
(321.26392 -3.8295875e-19 6.0953312)
(321.36247 -3.4650987e-19 5.4053723)
(321.21108 2.7015011e-21 6.6729809)
(321.11725 -6.5816096e-18 5.8051316)
(321.30455 1.4243086e-17 5.4056823)
(321.1374 0 6.6884617)
(320.9055 -1.384148e-17 5.4380401)
(321.07725 4.6645314e-18 4.889649)
(320.89544 -7.1205397e-18 6.1788015)
(320.66316 -1.1401418e-17 4.9926047)
(320.89959 -1.9691418e-17 4.5971262)
(320.70614 -6.3012764e-18 5.8990922)
(320.33611 1.9837095e-18 4.4564173)
(320.59528 -1.0136141e-17 4.0233542)
(320.39246 -4.4974971e-18 5.3319824)
(319.91974 2.8263912e-18 3.8304449)
(320.24482 7.8402722e-18 3.474474)
(320.03613 8.7076396e-18 4.7970177)
(319.37149 -8.5176615e-18 3.1265197)
(319.74868 -1.4112281e-17 2.7625132)
(319.54129 -8.1943284e-18 4.0960217)
(318.71244 -1.7073241e-18 2.3914297)
(319.09986 -8.0513981e-18 2.0312511)
(318.91067 2.5516245e-18 3.3836571)
(317.80214 -7.5815982e-18 1.5873247)
(318.2067 5.2525589e-17 1.2221737)
(318.01637 0 2.571329)
(316.55406 -2.8124402e-17 0.92628204)
(317.13941 1.7832519e-17 0.50222064)
(316.99105 -7.0480668e-18 1.7994948)
(315.10028 -1.3030616e-17 0.48333146)
(315.81067 -8.4992845e-17 0.019781865)
(315.71287 -1.9542826e-17 1.2104196)
(313.52394 1.2435794e-17 0.27470514)
(314.28341 -5.3299487e-19 -0.21326384)
(314.23002 8.6600687e-18 0.83662544)
(311.91861 0 0.25933973)
(312.66485 -9.60147e-18 -0.22152438)
(312.64269 -4.6703442e-18 0.67284254)
(310.37158 0 0.38185165)
(311.06259 7.4893668e-17 -0.057651741)
(311.06001 -6.4000728e-21 0.67761026)
(308.95883 0 0.56447543)
(309.56728 0 0.19622472)
(309.57293 -4.7701676e-21 0.78142562)
(307.73722 -7.8804121e-19 0.73638304)
(308.25054 -5.5593422e-17 0.45362288)
(308.25689 3.4928145e-19 0.90577661)
(306.73929 -5.7848111e-17 0.84910955)
(307.14551 -1.5169741e-17 0.65989431)
(307.14876 1.9627738e-18 0.99906629)
(305.96006 -5.6240228e-17 0.87495428)
(306.28073 -1.9607764e-17 0.77174174)
(306.27931 -3.2507436e-17 1.0192946)
(305.37061 -2.5355699e-17 0.81396576)
(305.60765 1.6425955e-17 0.78177539)
(305.60256 7.5243673e-18 0.9582035)
(304.95025 1.1831134e-17 0.67616098)
(305.11905 -9.9447095e-17 0.70019834)
(305.11181 -2.3806532e-17 0.82316051)
(304.67156 1.3321291e-16 0.48062628)
(304.77714 -7.972695e-19 0.5430389)
(304.7701 2.8325294e-17 0.62667743)
(304.50831 6.2879804e-17 0.24621832)
(304.56787 1.4015436e-17 0.33471604)
(304.56143 1.9057541e-17 0.38895779)
(304.43836 5.4714213e-17 -0.0083013444)
(304.45544 1.0752788e-17 0.10006669)
(304.4505 -1.9841072e-18 0.13406094)
(304.44129 6.8188295e-17 -0.28781269)
(304.42854 -1.5600852e-17 -0.16614469)
(304.42589 1.6367056e-17 -0.14344577)
(304.48474 1.4841521e-17 -0.56208382)
(304.46187 -1.1335462e-17 -0.45658495)
(304.4628 1.4418487e-18 -0.43902596)
(304.58226 9.4518486e-18 -0.64099878)
(304.49211 8.3664085e-18 -0.71183979)
(304.50894 3.53103e-18 -0.70019283)
(304.65525 -2.1777035e-17 -0.68978426)
(304.53776 9.8533369e-17 -0.8803756)
(304.55302 -2.3054471e-18 -0.8781009)
(304.67238 -4.3138095e-18 -0.88344825)
(304.61612 -1.5505552e-16 -0.954604)
(304.61238 -3.2823575e-18 -0.95992485)
(304.75709 4.4670309e-17 -0.77691477)
(304.71451 6.8961071e-18 -0.87238324)
(304.72205 2.5245217e-18 -0.892012)
(304.79902 4.5756803e-17 -1.0450135)
(304.86121 9.4155786e-19 -0.6092754)
(304.82958 5.6328555e-18 -0.63957996)
(305.04067 -4.8616396e-20 -0.41539519)
(305.02512 -1.2867782e-16 -0.3735106)
(305.05216 2.0869753e-18 -0.38588264)
(305.0517 3.5230023e-18 -0.48050558)
(305.05172 -1.752636e-18 -0.48804194)
(204.32867 -3.4755744e-17 4.3988628)
(189.22981 -7.6771941e-17 3.5364322)
(234.68201 1.0109789e-16 4.9288562)
(224.47695 5.4515303e-17 4.3366559)
(258.4702 4.8534598e-17 5.2714386)
(249.09203 9.1218083e-17 4.6496089)
(281.67157 -3.8697671e-19 5.5491592)
(272.03496 -4.0125028e-17 4.9500891)
(305.25221 -2.6217253e-17 5.7583438)
(295.73117 -2.6788137e-19 4.94375)
(319.26519 -3.1784211e-17 5.8330922)
(318.81617 -5.9521166e-17 5.5320167)
(322.03494 -1.8924928e-17 5.8630015)
(320.6654 2.5421654e-17 4.6652733)
(322.62927 -2.3692252e-17 5.8581481)
(323.7062 -3.247584e-17 5.9948086)
(322.04931 1.0278014e-17 5.8237084)
(321.36833 1.7698915e-17 4.2902519)
(322.30773 1.4458219e-17 5.802033)
(322.90481 1.4332002e-17 6.1274139)
(321.99263 8.2389139e-19 5.7596128)
(321.63749 -5.379955e-18 4.1980062)
(322.10798 -2.8469575e-18 5.7197776)
(322.47337 0 5.9640457)
(321.89653 -6.5743508e-18 5.6579811)
(321.73008 3.28588e-18 4.2731404)
(321.92981 -4.9468093e-19 5.5915702)
(322.16505 3.6703909e-18 5.6270768)
(321.78072 8.9002659e-18 5.4966435)
(321.7244 6.1383678e-19 4.3638926)
(321.75828 7.7827206e-18 5.3863755)
(321.93344 4.1758575e-19 5.2022216)
(321.62706 2.2174911e-18 5.2348423)
(321.64689 2.0074621e-18 4.3398278)
(321.55686 0 5.0500902)
(321.71249 -1.0310382e-17 4.7054801)
(321.4148 1.2778819e-17 4.8055842)
(321.49796 2.8613394e-18 4.0969525)
(321.28687 2.6034263e-17 4.5063975)
(321.45275 2.3440891e-17 4.0848385)
(321.09327 9.481013e-19 4.1295668)
(321.23971 1.1513575e-17 3.5620049)
(320.86725 -1.9249924e-17 3.6775598)
(321.07118 3.9651264e-19 3.25755)
(320.55516 -5.9243141e-18 3.1308797)
(320.77742 1.6949641e-17 2.6721285)
(320.14941 -6.8819444e-18 2.4905629)
(320.43368 0 2.1019645)
(319.59835 -1.4192034e-17 1.7721442)
(319.93579 2.3333242e-17 1.3659786)
(318.85814 3.9804423e-17 1.0260344)
(319.27024 -1.9375454e-17 0.60736619)
(317.87057 8.0646165e-17 0.25137807)
(318.36853 1.9420235e-17 -0.17656135)
(316.62541 -2.8632323e-17 -0.32414897)
(317.24684 2.5746111e-17 -0.80552284)
(315.16213 -8.0664684e-17 -0.63270363)
(315.86132 -5.2893627e-18 -1.1717729)
(313.5777 -2.1387973e-17 -0.70258479)
(314.294 8.2854592e-17 -1.263832)
(311.95291 5.6061242e-17 -0.56341234)
(312.6473 -9.4762268e-18 -1.1142922)
(310.39107 8.2378489e-17 -0.28712716)
(311.03033 1.3250093e-17 -0.79000825)
(308.97413 -4.9345451e-17 0.037971677)
(309.53235 0 -0.3854066)
(307.75344 -7.4050111e-17 0.3343651)
(308.2207 -1.1129567e-16 0.0049062208)
(306.75854 2.3230937e-17 0.55172574)
(307.12401 -2.8592642e-17 0.32394495)
(305.98214 4.8701951e-17 0.66118152)
(306.26856 6.5925927e-17 0.52737909)
(305.39347 -4.4671931e-17 0.66472627)
(305.60294 -1.6802005e-17 0.60865901)
(304.97093 -1.227738e-16 0.57524244)
(305.11949 5.1346221e-17 0.58074022)
(304.68793 -1.2108522e-16 0.41510872)
(304.77961 -9.4112668e-17 0.4632595)
(304.52014 -3.7580857e-17 0.20653611)
(304.57134 -2.7875283e-17 0.28463515)
(304.44518 -5.6478e-17 -0.031535418)
(304.45862 1.0400053e-17 0.070363527)
(304.44315 -9.5479253e-17 -0.30120771)
(304.43019 -7.668224e-17 -0.18478865)
(304.48503 -2.0386673e-17 -0.52598944)
(304.45622 -2.040107e-16 -0.47030888)
(304.56292 8.6905381e-17 -0.60498418)
(304.47664 1.6649873e-17 -0.71981784)
(304.63671 -6.5421176e-18 -0.69377739)
(304.52665 6.2756358e-19 -0.87953341)
(304.65983 -1.6244346e-16 -0.90537404)
(304.61749 7.626181e-18 -0.94971333)
(304.78328 -3.65963e-17 -0.75743838)
(304.70802 -6.741708e-18 -0.85220956)
(304.85372 -1.6115656e-16 -0.89431375)
(304.88344 -4.1259646e-17 -0.58213266)
(305.02765 -1.3966478e-16 -0.40123207)
(305.0064 1.2236771e-16 -0.35771659)
(305.05026 -3.9382456e-18 -0.46708205)
(206.13587 0 3.6123535)
(190.98089 3.9926025e-17 2.8232186)
(236.65693 4.2027293e-17 4.0227988)
(226.41387 -5.7787662e-17 3.4523439)
(260.56806 1.4815265e-17 4.2713811)
(251.15991 4.4912752e-17 3.668377)
(283.92985 -4.3094618e-17 4.4581614)
(274.1943 -3.7996225e-17 3.8967537)
(307.19295 -2.8197195e-17 4.5660247)
(298.10676 3.4314905e-17 3.747208)
(320.04359 -1.0254935e-17 4.5870752)
(320.14226 -5.9114157e-17 4.3209444)
(322.06459 1.6687601e-17 4.5960124)
(320.68732 5.0451268e-17 3.3443002)
(322.6606 4.0447989e-18 4.586429)
(323.73776 -2.0954718e-17 4.7674545)
(322.08517 2.1919339e-17 4.5521112)
(321.38498 1.8349679e-17 2.9530969)
(322.3524 -3.5096893e-18 4.527038)
(322.94527 -1.8764748e-18 4.8929052)
(322.04093 -6.6058506e-18 4.4828968)
(321.66411 -4.4402035e-18 2.8663777)
(322.16535 5.734182e-18 4.4401962)
(322.52058 -1.2843767e-18 4.7101991)
(321.95925 1.3266292e-17 4.3750333)
(321.77316 -2.3442703e-18 2.9504173)
(322.00194 4.9948814e-18 4.3045081)
(322.22331 3.3526606e-18 4.3483277)
(321.86195 -7.6630592e-18 4.2035164)
(321.78847 -2.9055355e-18 3.0448835)
(321.85104 -5.3554107e-18 4.0855227)
(322.01122 -4.8492262e-18 3.8951016)
(321.73292 -9.2563369e-18 3.9231369)
(321.73852 0 3.011158)
(321.67616 -8.5722528e-18 3.7261916)
(321.81737 -3.126977e-18 3.3681611)
(321.5477 1.1619002e-17 3.4686918)
(321.61748 -2.9379873e-18 2.7476769)
(321.43186 1.0204413e-17 3.157509)
(321.58183 -3.4186873e-17 2.720339)
(321.25011 1.1895748e-17 2.7691312)
(321.38125 -1.6263546e-17 2.1887592)
(321.03424 3.4474551e-17 2.3028353)
(321.22187 3.3220041e-17 1.8639123)
(320.73101 2.4194209e-17 1.7339587)
(320.94093 2.7443083e-17 1.2546852)
(320.33276 2.7634773e-17 1.0678447)
(320.60376 4.6962918e-17 0.64795289)
(319.79673 2.1989602e-17 0.33539847)
(320.0973 5.3807099e-17 -0.12121422)
(319.03539 -4.2894597e-17 -0.43930572)
(319.42222 -1.2753327e-17 -0.89086776)
(317.96336 -3.5093095e-17 -1.1436974)
(318.49019 -3.162918e-17 -1.6186897)
(316.65572 5.1638049e-17 -1.5907618)
(317.30439 0 -2.1413116)
(315.16429 1.474976e-16 -1.7741978)
(315.86801 5.7059702e-17 -2.3819742)
(313.54019 1.0353504e-16 -1.6913607)
(314.26142 -1.4606969e-17 -2.3237738)
(311.89572 -5.4003518e-17 -1.388552)
(312.58959 -1.5621664e-19 -2.0076318)
(310.32888 -6.6841193e-17 -0.95324618)
(310.96321 -5.2405266e-17 -1.517777)
(308.91686 -4.9929149e-17 -0.48377551)
(309.46851 0 -0.96050733)
(307.70678 -7.4933073e-17 -0.063162019)
(308.16783 2.4748112e-16 -0.43750743)
(306.72448 3.7733595e-18 0.25727176)
(307.08468 -1.4307286e-17 -0.0071141854)
(305.95991 9.7023624e-18 0.44854621)
(306.24308 -3.5190976e-19 0.28614982)
(305.38067 7.1255252e-17 0.51492012)
(305.58857 2.3162071e-19 0.43704435)
(304.96469 9.576745e-17 0.47244074)
(305.11308 1.0092776e-16 0.46142621)
(304.6856 -8.6003639e-18 0.34705752)
(304.77734 2.8621e-16 0.3828526)
(304.5203 1.5653921e-17 0.16393817)
(304.57162 2.8206211e-17 0.23366836)
(304.44609 0 -0.058391795)
(304.45985 -1.0453008e-17 0.039446353)
(304.44085 -1.7076626e-16 -0.31850412)
(304.43061 0 -0.20574224)
(304.4891 -1.9290906e-16 -0.50323253)
(304.44673 -2.2672942e-17 -0.48597204)
(304.55758 -6.7914627e-17 -0.60235187)
(304.46354 3.3370346e-17 -0.72797232)
(304.62467 1.4152504e-17 -0.71685631)
(304.51809 -1.1086507e-16 -0.87771554)
(304.65876 1.658315e-16 -0.89586324)
(304.61603 4.4377955e-16 -0.94227431)
(304.76847 -7.5060296e-18 -0.79097105)
(304.7094 -6.7900062e-18 -0.82974273)
(304.87128 2.2741616e-16 -0.77890288)
(304.89486 0 -0.55514591)
(305.02314 2.7457721e-16 -0.38827174)
(304.99356 1.3599418e-16 -0.34356303)
(305.04548 -7.5851945e-18 -0.45374823)
(207.98281 -8.757791e-18 2.8015119)
(192.72521 7.985164e-17 2.0387955)
(238.66583 -6.2925378e-17 3.0878615)
(228.35588 -5.5533654e-17 2.5580064)
(262.67914 -2.3485854e-19 3.2379399)
(253.22469 -2.4235555e-17 2.6521115)
(286.17664 3.1990417e-17 3.3292155)
(276.33062 4.107562e-17 2.8077089)
(309.04016 1.1370723e-17 3.3369371)
(300.43592 1.6421123e-17 2.5068973)
(320.72344 -8.3441501e-18 3.3115379)
(321.27028 -2.0848594e-17 3.0832818)
(322.0818 1.9238737e-17 3.3056668)
(320.68671 2.3424654e-17 1.9989813)
(322.67399 -1.0043844e-17 3.2918629)
(323.75341 -1.4466695e-17 3.5236498)
(322.10299 -3.3149052e-18 3.2575798)
(321.38624 0 1.5939022)
(322.37557 -2.587919e-18 3.2294103)
(322.97066 1.0689362e-18 3.6383919)
(322.06701 5.1258655e-19 3.1825715)
(321.6765 6.9319157e-18 1.5114359)
(322.20015 -9.0950831e-18 3.1354805)
(322.55415 3.911099e-18 3.4326249)
(322.00032 -1.2481489e-17 3.0650703)
(321.80324 -4.0492989e-18 1.6013712)
(322.05351 -3.8738118e-18 2.9877774)
(322.26914 7.0807828e-20 3.0402258)
(321.92407 0 2.8778632)
(321.84092 3.0023668e-18 1.6943501)
(321.92635 0 2.7490878)
(322.07717 -1.0014432e-17 2.5524631)
(321.82219 6.247433e-18 2.5741831)
(321.81749 1.671378e-17 1.6467998)
(321.77912 2.3717854e-18 2.3638184)
(321.90716 -1.3386146e-19 1.9939678)
(321.66473 -4.5219187e-17 2.092998)
(321.72047 2.3583907e-17 1.3626856)
(321.56148 -6.1575551e-17 1.7676394)
(321.69312 -2.3015493e-17 1.3173129)
(321.39355 5.1047769e-19 1.3620961)
(321.50506 -1.5846053e-17 0.7698545)
(321.19198 2.681407e-17 0.87020673)
(321.35673 -7.5703829e-18 0.41090034)
(320.90606 4.8113488e-17 0.26551832)
(321.09044 -5.9816061e-18 -0.23720794)
(320.53258 7.2101996e-17 -0.4251964)
(320.7513 -2.0630934e-17 -0.8909174)
(319.96144 2.5605431e-17 -1.203835)
(320.24571 -4.0547634e-17 -1.6853526)
(319.103 0 -1.9501144)
(319.54192 0 -2.4338314)
(317.99673 0 -2.5390974)
(318.55925 -1.1102377e-17 -3.0834355)
(316.67042 0 -2.8789235)
(317.31566 7.2585085e-17 -3.496353)
(315.13217 -9.5951343e-17 -2.9242563)
(315.82853 7.3764038e-18 -3.6029072)
(313.4797 -1.1831257e-16 -2.679284)
(314.18379 -1.0628362e-16 -3.3825984)
(311.8197 6.6259933e-18 -2.2073598)
(312.49114 1.4664322e-16 -2.8928196)
(310.25164 8.4006423e-18 -1.6105006)
(310.86118 1.4007816e-16 -2.2341098)
(308.84918 2.6908518e-16 -0.9966081)
(309.37606 1.2338526e-17 -1.5237902)
(307.6537 3.3482673e-16 -0.45300502)
(308.09233 -1.5491815e-17 -0.86952435)
(306.68715 -1.9886804e-17 -0.031264406)
(307.02792 1.4813559e-17 -0.32994881)
(305.93682 -9.809147e-18 0.24017214)
(306.20463 -1.0905467e-17 0.050919077)
(305.36842 1.8763383e-17 0.36795485)
(305.5648 -2.2223567e-19 0.26946849)
(304.95933 2.7012013e-16 0.37144692)
(305.10004 2.0544843e-16 0.34459518)
(304.68385 3.5149627e-16 0.28028562)
(304.7705 -2.6192497e-18 0.30397102)
(304.52053 6.4747063e-18 0.12226771)
(304.56887 2.8344494e-17 0.18372374)
(304.44654 -1.1630174e-17 -0.084789678)
(304.45919 3.1471101e-16 0.0090387774)
(304.43687 1.5061149e-16 -0.33595115)
(304.42979 2.468959e-16 -0.22723003)
(304.48068 1.9599695e-16 -0.50268953)
(304.43618 1.7001138e-16 -0.50176163)
(304.54094 9.2710838e-18 -0.61256006)
(304.45227 2.4961384e-17 -0.73534592)
(304.61271 2.5683318e-16 -0.72302307)
(304.5096 -4.0251322e-16 -0.87502217)
(304.65889 3.2185946e-16 -0.88321798)
(304.61255 2.9028718e-16 -0.93175629)
(304.76041 0 -0.83909978)
(304.7176 0 -0.80620216)
(304.88767 -1.0830814e-16 -0.69983226)
(304.89838 0 -0.52929074)
(305.01674 -1.3427843e-16 -0.37527535)
(304.98457 -1.2607293e-16 -0.33021753)
(305.04087 1.8313465e-16 -0.44007629)
(209.73835 4.4913518e-17 1.9608968)
(194.42398 -5.4320058e-20 1.1979496)
(240.59941 -2.0174006e-17 2.1186162)
(230.24496 1.5394443e-17 1.6548686)
(264.73275 1.104664e-17 2.1683326)
(255.2431 -2.2969079e-17 1.606806)
(288.35852 2.7782964e-17 2.1619192)
(278.42094 3.4405976e-17 1.6916842)
(310.74468 -1.2154518e-17 2.0741068)
(302.68124 -8.2894274e-18 1.2312354)
(321.26686 6.7377843e-18 2.0159557)
(322.17703 3.5828062e-18 1.8268013)
(322.07747 -6.5514165e-18 1.9995351)
(320.66534 6.5938353e-20 0.6322017)
(322.67724 -5.78306e-18 1.9810281)
(323.7593 -5.1986743e-18 2.2653131)
(322.10928 4.1994672e-18 1.9447104)
(321.37794 -3.5242845e-20 0.21364195)
(322.38985 9.9108761e-18 1.911104)
(322.98832 6.4439632e-18 2.3642601)
(322.08505 1.0490792e-17 1.8594059)
(321.68072 3.6978442e-18 0.1332799)
(322.22735 9.4685274e-18 1.805708)
(322.5795 -1.8942995e-19 2.1307147)
(322.03366 7.8940731e-18 1.7274554)
(321.82533 4.2376774e-18 0.22587477)
(322.09703 6.5645138e-18 1.6404408)
(322.30674 -3.7912856e-18 1.7018038)
(321.97776 -5.7538079e-18 1.5186941)
(321.88506 -3.1418392e-18 0.3130951)
(321.99169 4.1938102e-18 1.3771035)
(322.13258 -4.691623e-18 1.1757748)
(321.89986 1.182649e-17 1.1891529)
(321.88341 -5.9897657e-19 0.25020599)
(321.86826 1.8696322e-17 0.96612627)
(321.98141 2.853919e-17 0.58561968)
(321.76582 4.9136558e-17 0.68024434)
(321.80734 -6.8492313e-18 -0.056994576)
(321.67421 2.1174574e-17 0.33386698)
(321.78966 3.3957499e-17 -0.12764385)
(321.52161 -2.4450961e-17 -0.10081626)
(321.61571 -8.1901923e-18 -0.70424657)
(321.34338 -3.9843468e-17 -0.63181557)
(321.47903 -1.9804293e-17 -1.1145569)
(321.09003 -7.2147051e-17 -1.2765672)
(321.22315 -6.3054414e-17 -1.8127396)
(320.68877 -1.2933531e-16 -2.0240505)
(320.88894 -2.678872e-17 -2.5070347)
(320.03484 -6.9179803e-17 -2.7968368)
(320.36498 2.0454368e-18 -3.2985409)
(319.14673 -9.9177891e-18 -3.4640608)
(319.61311 -1.0757285e-16 -4.0012942)
(318.01566 5.2647116e-17 -3.9634844)
(318.58081 -2.2202499e-17 -4.5710354)
(316.63152 8.5957462e-17 -4.1841917)
(317.27937 1.5471363e-16 -4.8697104)
(315.05004 8.0815007e-18 -4.0777119)
(315.74096 7.2728244e-18 -4.8273551)
(313.36774 1.3061487e-16 -3.6606232)
(314.06051 1.2418047e-17 -4.4339786)
(311.69759 2.7921834e-16 -3.0139997)
(312.35203 -1.3331616e-17 -3.7639276)
(310.13547 1.5691322e-16 -2.2537936)
(310.72482 -2.9397566e-18 -2.9338872)
(308.74938 -2.6676445e-16 -1.4962904)
(309.25577 -2.6323452e-19 -2.0711236)
(307.57481 -3.3587563e-16 -0.83187144)
(307.99497 -1.2941696e-16 -1.2879444)
(306.6295 2.6436488e-17 -0.31149091)
(306.95437 2.2351695e-16 -0.6421707)
(305.89811 -2.5429753e-18 0.037619633)
(306.15367 1.1234716e-17 -0.17661528)
(305.34446 1.630057e-16 0.22471213)
(305.53195 -8.3667732e-18 0.1070487)
(304.94555 -4.3184007e-17 0.27262257)
(305.08056 -4.0226509e-16 0.23094086)
(304.67639 -3.2801943e-16 0.21473725)
(304.75921 -6.2280176e-16 0.2270178)
(304.51716 3.0360215e-16 0.081179849)
(304.56316 1.4179852e-17 0.13492319)
(304.44497 5.8053602e-16 -0.11118443)
(304.45659 -1.1650278e-17 -0.020946461)
(304.43173 2.750015e-16 -0.35429397)
(304.42743 3.0602552e-17 -0.24921448)
(304.47131 1.4741444e-17 -0.51133971)
(304.42522 3.3974424e-16 -0.51760752)
(304.52865 -3.3651198e-16 -0.62421821)
(304.44226 3.3249541e-17 -0.74190579)
(304.60332 -4.4887751e-16 -0.72599602)
(304.50145 -3.9529772e-17 -0.87180783)
(304.66011 2.4466546e-20 -0.87020377)
(304.60888 -2.7628285e-16 -0.91892339)
(304.7623 0 -0.82906204)
(304.72821 0 -0.78155773)
(304.89234 -3.3239051e-18 -0.64011267)
(304.89881 -3.1121721e-16 -0.50488543)
(305.01154 1.6101542e-16 -0.36225752)
(304.97793 -1.1680831e-19 -0.31739315)
(305.03781 6.3201151e-18 -0.42618218)
(211.57499 -3.0116604e-17 1.0975282)
(196.12443 -4.0315048e-17 0.33210936)
(242.57575 1.5640782e-17 1.1290856)
(232.12322 1.417773e-17 0.72129194)
(266.79574 -4.6060025e-18 1.0772066)
(257.25494 3.7630967e-19 0.52364312)
(290.5107 2.4895934e-18 0.96920795)
(280.51077 -5.3280792e-18 0.53979038)
(312.32357 6.1592418e-18 0.78848208)
(304.85108 8.7037027e-18 -0.085788729)
(321.70106 -2.6598133e-18 0.70111347)
(322.9144 -3.7405456e-18 0.54650497)
(322.06527 1.7970218e-18 0.6755138)
(320.64785 4.8773051e-18 -0.7615405)
(322.67329 1.3876732e-20 0.6495477)
(323.76763 -2.6824104e-18 0.98739336)
(322.10965 1.6511958e-18 0.60999748)
(321.36702 -3.4435583e-20 -1.1905055)
(322.39693 5.8639817e-19 0.56991987)
(323.00218 1.8362869e-18 1.0687959)
(322.09496 -6.4343457e-18 0.51210281)
(321.67968 -1.4225373e-17 -1.2692723)
(322.24606 -5.6505837e-18 0.45006343)
(322.59973 5.3796425e-18 0.80349189)
(322.05874 -6.5508079e-18 0.36178917)
(321.84281 1.3157937e-17 -1.1764455)
(322.13212 -1.3328849e-17 0.2629457)
(322.33897 -7.1280236e-18 0.33384394)
(322.02217 -1.9862012e-18 0.1279981)
(321.92227 1.3840533e-19 -1.0961229)
(322.04581 -9.7097434e-18 -0.026953413)
(322.17774 1.5212722e-17 -0.23072017)
(321.96411 1.3406424e-17 -0.22820598)
(321.93596 -1.2327494e-17 -1.1747089)
(321.94306 6.394698e-18 -0.46525012)
(322.03943 -8.1892122e-18 -0.85650237)
(321.85426 -2.5055083e-17 -0.77237886)
(321.88129 -3.4688694e-17 -1.5167362)
(321.77836 8.6734117e-18 -1.1525629)
(321.878 -2.5319489e-17 -1.6254825)
(321.65735 -2.6597973e-18 -1.6242742)
(321.71436 3.5911084e-19 -2.246194)
(321.51236 -3.8904305e-17 -2.2125839)
(321.59457 -1.3238941e-19 -2.7203224)
(321.2329 -2.1713716e-17 -2.9173742)
(321.34881 -1.5777022e-17 -3.4610216)
(320.75955 9.9652034e-17 -3.6758325)
(321.00112 1.2587238e-16 -4.1702923)
(320.0767 -2.5972594e-17 -4.3946668)
(320.43848 -2.0670913e-18 -4.9372138)
(319.16666 -1.2737457e-16 -5.0049424)
(319.64012 -1.0449634e-17 -5.5934329)
(317.98331 6.1938071e-17 -5.409541)
(318.55395 1.1119395e-19 -6.0805253)
(316.547 9.1048074e-17 -5.4973713)
(317.19234 -6.7936957e-17 -6.2518038)
(314.92145 1.1059436e-17 -5.225612)
(315.60311 0 -6.0465727)
(313.21522 -1.2729271e-16 -4.6277196)
(313.89062 -1.8817455e-16 -5.4696864)
(311.54084 -2.9334792e-16 -3.8021799)
(312.1723 -1.5654228e-16 -4.6139929)
(309.99093 -1.5874966e-16 -2.8781024)
(310.55473 -1.3262186e-16 -3.611481)
(308.62733 1.4928975e-16 -1.9789303)
(309.10851 -1.2362324e-17 -2.5980865)
(307.47895 3.8817154e-16 -1.1967964)
(307.87661 2.018012e-16 -1.6893653)
(306.55926 2.310893e-16 -0.58113204)
(306.86481 -4.8189482e-17 -0.94117234)
(305.85034 7.5526292e-18 -0.15738476)
(306.09081 -3.5542294e-16 -0.39446568)
(305.31417 -5.2765508e-16 0.086501128)
(305.49049 -2.9451772e-16 -0.048733954)
(304.92736 -9.5496883e-16 0.17697513)
(305.05496 -1.6301136e-16 0.12156645)
(304.66589 -3.5299003e-16 0.15115311)
(304.74368 -3.068034e-16 0.15281618)
(304.51167 -2.9758363e-16 0.041201595)
(304.55465 -1.4276091e-17 0.08777669)
(304.4417 -5.6577591e-16 -0.1369974)
(304.45205 -3.3576939e-16 -0.050248873)
(304.42512 6.0133543e-17 -0.37300868)
(304.42329 -6.949779e-16 -0.27115436)
(304.46007 3.935282e-16 -0.52362703)
(304.41409 -3.3195813e-17 -0.53300514)
(304.51559 3.4389206e-16 -0.63684164)
(304.43337 1.6628015e-17 -0.74749388)
(304.59365 1.5935748e-16 -0.72645603)
(304.49373 3.7791014e-16 -0.86835186)
(304.66086 -3.084883e-16 -0.85439849)
(304.60489 -2.7793253e-16 -0.90314381)
(304.77085 -2.7781818e-16 -0.79502301)
(304.73904 -4.3556846e-16 -0.75584227)
(304.89543 -3.443017e-16 -0.59753142)
(304.89879 2.271464e-18 -0.48194563)
(305.00718 -1.5834014e-16 -0.34924896)
(304.97288 3.6987806e-18 -0.3050401)
(305.03567 -1.8410279e-16 -0.4121534)
(213.28703 -1.3853573e-18 0.19942269)
(197.75669 -2.5429101e-18 -0.56669812)
(244.46947 3.3837925e-19 0.097321825)
(233.94358 0 -0.2405678)
(268.81383 1.1414109e-19 -0.05958428)
(259.22285 -1.1532362e-18 -0.59162785)
(292.59577 -3.4925262e-19 -0.27239735)
(282.57652 -3.1658528e-19 -0.64694578)
(313.76651 0 -0.53759105)
(306.88827 0 -1.4405539)
(322.04342 2.951751e-18 -0.64505442)
(323.47831 3.9034669e-18 -0.75332399)
(322.05503 1.0899911e-18 -0.67422749)
(320.61641 -6.721502e-18 -2.1792269)
(322.66946 -2.9364526e-18 -0.70543268)
(323.76618 2.8329437e-18 -0.30830617)
(322.10673 0 -0.74748072)
(321.34725 9.1877776e-18 -2.6176984)
(322.4008 -1.1380563e-17 -0.79431523)
(323.01114 -1.5282374e-17 -0.2482741)
(322.10186 -4.2246989e-18 -0.85944519)
(321.67567 -1.2387896e-17 -2.697173)
(322.26198 2.3157418e-17 -0.93159899)
(322.61826 4.9161325e-18 -0.54967999)
(322.08066 1.4198951e-17 -1.0313638)
(321.85795 -4.9114211e-18 -2.6043534)
(322.16241 5.4639092e-18 -1.1425752)
(322.36573 7.3913002e-18 -1.0607803)
(322.0596 1.5741197e-17 -1.2902031)
(321.95087 -1.8775389e-17 -2.5289596)
(322.09038 1.4870112e-17 -1.4586619)
(322.21167 9.9999484e-18 -1.6637476)
(322.0172 -3.3799904e-17 -1.6777543)
(321.97895 4.1642313e-18 -2.627783)
(322.00761 -4.6247933e-17 -1.9347854)
(322.08547 -1.2978789e-17 -2.3381148)
(321.93745 -3.572795e-17 -2.2786036)
(321.95152 0 -3.0295267)
(321.89857 -3.559816e-17 -2.6915478)
(321.95296 -3.8920507e-17 -3.1906634)
(321.80748 2.8832887e-18 -3.2344155)
(321.8177 4.2008076e-17 -3.8653616)
(321.63338 2.3832674e-17 -3.8803748)
(321.70444 4.9833953e-17 -4.3922792)
(321.29546 1.1678434e-16 -4.6066335)
(321.45261 6.9831077e-17 -5.1517074)
(320.79736 3.7158172e-17 -5.3326074)
(321.07151 1.6808455e-17 -5.8576933)
(320.10051 1.3991068e-17 -6.0199982)
(320.47191 -5.5904187e-17 -6.6025055)
(319.1448 1.1398981e-16 -6.571786)
(319.62351 -2.4207611e-17 -7.2117407)
(317.904 -1.2154423e-16 -6.8697175)
(318.47704 1.1039949e-17 -7.6039913)
(316.40987 -1.6409854e-16 -6.8091081)
(317.05308 -1.5740948e-16 -7.6336565)
(314.74342 -1.78494e-16 -6.3597655)
(315.41449 -2.4297961e-16 -7.2516773)
(313.01768 -2.201504e-16 -5.5732627)
(313.67462 2.0846585e-16 -6.4820713)
(311.34581 0 -4.5657849)
(311.95309 0 -5.4366407)
(309.81522 0 -3.4785656)
(310.35238 -2.5939937e-16 -4.2618206)
(308.4806 1.739821e-17 -2.4407594)
(308.93575 0 -3.1007781)
(307.36396 -2.0487455e-16 -1.5449154)
(307.73856 1.9451979e-17 -2.0708395)
(306.47446 -5.9773967e-16 -0.83802461)
(306.76027 -2.5369381e-16 -1.2247362)
(305.79177 -6.6239048e-16 -0.34324435)
(306.01682 1.5992632e-17 -0.60097675)
(305.27603 5.4115241e-17 -0.045524147)
(305.44095 -4.0395928e-17 -0.19667703)
(304.90363 4.9862842e-16 0.085321675)
(305.02359 8.6965786e-16 0.017342234)
(304.65163 -1.9722206e-18 0.090053134)
(304.72417 3.0032392e-16 0.08198791)
(304.50366 -1.5893584e-17 0.0025854687)
(304.54352 6.4667733e-20 0.042618969)
(304.43645 -4.2389812e-16 -0.16191027)
(304.44559 0 -0.078812217)
(304.41705 -8.6443421e-16 -0.39168992)
(304.41719 3.0796698e-17 -0.29259708)
(304.44955 -4.1641362e-16 -0.53464377)
(304.40245 -3.8503073e-16 -0.5474267)
(304.50609 1.0727491e-17 -0.64279915)
(304.42497 5.4433543e-16 -0.75170715)
(304.583 1.5110001e-17 -0.73265561)
(304.48775 3.8528505e-16 -0.86480614)
(304.66207 -3.8763633e-16 -0.83650875)
(304.60541 -3.4009657e-21 -0.88562698)
(304.77877 -2.0176205e-16 -0.76080533)
(304.74876 -2.7105231e-17 -0.72907173)
(304.89623 3.5437229e-16 -0.5643221)
(304.89876 3.11086e-16 -0.46040721)
(305.0036 0 -0.3363591)
(304.96884 1.0574073e-17 -0.29312742)
(305.03389 3.3698631e-16 -0.39806141)
(214.99544 -1.3921378e-18 -0.71926781)
(199.33573 4.7977371e-20 -1.4942983)
(246.33929 -1.3676246e-18 -0.95450495)
(235.7099 0 -1.2320443)
(270.82066 -1.6391043e-18 -1.2183541)
(261.16138 6.1051605e-20 -1.7306051)
(294.62537 0 -1.539265)
(284.65678 0 -1.8662154)
(315.06659 3.5098763e-18 -1.8830059)
(308.79111 0 -2.8305391)
(322.29756 -4.7199261e-18 -2.0068518)
(323.91292 1.1730605e-17 -2.0724242)
(322.03615 -5.7638413e-18 -2.0397047)
(320.58791 -1.9716303e-17 -3.622641)
(322.65858 1.4184136e-17 -2.0791314)
(323.76819 1.6474992e-17 -1.6253608)
(322.09973 -3.8275315e-18 -2.1261962)
(321.32902 4.3442699e-18 -4.0720872)
(322.40251 -1.6488778e-17 -2.1822708)
(323.02292 -2.2641916e-17 -1.5911937)
(322.10749 -4.8262101e-18 -2.2567782)
(321.67341 -6.4418354e-18 -4.1526793)
(322.27617 -2.1745175e-17 -2.3397915)
(322.63558 -5.2280395e-18 -1.9283385)
(322.09912 -1.2553228e-17 -2.4501288)
(321.86777 -8.4328948e-18 -4.0544093)
(322.18661 -1.4233499e-17 -2.5721905)
(322.38335 -2.6626558e-19 -2.4787275)
(322.08928 -2.6699777e-17 -2.733141)
(321.97073 1.3294401e-17 -3.9840309)
(322.12799 0 -2.9167096)
(322.23481 -2.6061577e-17 -3.1265192)
(322.06622 2.5928852e-17 -3.1645643)
(322.02202 -8.7494268e-18 -4.1181971)
(322.07483 3.1232416e-17 -3.4568082)
(322.13011 4.2864026e-17 -3.8698987)
(322.04467 4.5197818e-20 -3.8367402)
(322.01397 4.8880401e-17 -4.6072231)
(322.02479 3.0360259e-17 -4.3243059)
(322.03989 3.5945282e-17 -4.8307169)
(321.90431 8.7399132e-17 -4.9157681)
(321.91332 6.7347579e-17 -5.5434333)
(321.68309 9.3254789e-17 -5.590637)
(321.79588 -5.2148025e-17 -6.0999323)
(321.32644 -2.3757674e-17 -6.2975358)
(321.51641 -3.1395117e-17 -6.8632396)
(320.82331 -6.8192244e-17 -7.0167663)
(321.10655 -6.8555807e-17 -7.5721624)
(320.08827 -9.6335445e-17 -7.6766815)
(320.46552 1.5191535e-16 -8.2977637)
(319.07514 -1.2874454e-16 -8.157205)
(319.55931 1.0968949e-16 -8.8499219)
(317.77076 -8.5926617e-18 -8.3335561)
(318.34661 -1.1858052e-17 -9.1326587)
(316.2206 -2.2712976e-16 -8.1099383)
(316.85906 8.7025829e-20 -9.0052528)
(314.51648 9.5424794e-17 -7.4714806)
(315.17381 2.5295557e-16 -8.4336204)
(312.77768 4.4660206e-16 -6.4899514)
(313.41248 4.1505765e-16 -7.463335)
(311.11556 -2.3053076e-16 -5.2989677)
(311.69528 -3.3144164e-16 -6.2255791)