/*--------------------------------*- C++ -*----------------------------------*\
  =========                 |
  \\      /  F ield         | OpenFOAM: The Open Source CFD Toolbox
   \\    /   O peration     | Website:  https://openfoam.org
    \\  /    A nd           | Version:  8
     \\/     M anipulation  |
\*---------------------------------------------------------------------------*/
FoamFile
{
    version     2.0;
    format      ascii;
    class       volScalarField;
    location    "0.0900078";
    object      T;
}
// * * * * * * * * * * * * * * * * * * * * * * * * * * * * * * * * * * * * * //

dimensions      [0 0 0 1 0 0 0];

internalField   nonuniform List<scalar> 
20000
(
293.07886
292.97191
292.00632
289.74016
285.25593
277.24944
274.97116
274.37471
275.1766
274.97638
275.53176
275.53904
275.99086
276.15434
276.58556
276.88576
277.35733
277.79668
278.35969
278.95621
279.66078
280.44241
281.33207
282.32873
283.44575
284.68285
286.04346
287.58035
289.1482
290.65826
292.05741
293.30224
294.37413
295.26612
295.98815
296.55184
296.99579
297.33829
297.60316
297.80921
297.96618
298.09313
298.20913
298.31658
298.39786
298.45
298.4654
298.36921
298.19514
298.13117
292.68188
292.44974
291.35881
288.88526
284.02715
276.01825
274.31395
273.75639
274.56427
274.36406
274.92404
274.93291
275.38927
275.55764
275.99406
276.30322
276.78311
277.23711
277.81609
278.43586
279.1654
279.97698
280.9011
281.94205
283.11857
284.45188
285.97485
287.54885
289.13557
290.6612
292.07528
293.32978
294.40188
295.28985
296.00636
296.56474
297.00463
297.34503
297.61006
297.81602
297.9733
298.10166
298.22255
298.34342
298.41964
298.45138
298.46735
298.31676
298.20224
298.1248
292.23726
291.91059
290.69802
288.02419
282.75246
274.85493
273.70014
273.14159
273.95632
273.75252
274.31865
274.32972
274.79086
274.96668
275.4089
275.73074
276.22115
276.69465
277.29225
277.93836
278.69542
279.54172
280.50917
281.61024
282.86854
284.30589
285.9028
287.53894
289.15425
290.71196
292.13899
293.39386
294.45956
295.33797
296.04442
296.59379
297.02656
297.36172
297.62349
297.82663
297.9817
298.10945
298.2353
298.35336
298.42552
298.45607
298.46327
298.31034
298.19893
298.12464
291.82099
291.37456
290.03573
287.16662
281.44646
273.73343
273.10908
272.55275
273.37509
273.17014
273.74175
273.75589
274.2219
274.40567
274.85424
275.18948
275.69126
276.18419
276.80011
277.47146
278.25558
279.14013
280.16043
281.3374
282.69825
284.2464
285.89255
287.5527
289.213
290.79078
292.22445
293.47521
294.52996
295.39501
296.08851
296.62656
297.0506
297.37968
297.63797
297.83818
297.99117
298.11882
298.25048
298.36789
298.43597
298.46289
298.45317
298.2944
298.1991
298.12249
291.39909
290.83031
289.37028
286.32075
280.13527
272.73516
272.55865
271.99803
272.82655
272.62065
273.19792
273.21616
273.68733
273.8806
274.33659
274.68722
275.20177
275.71555
276.35006
277.04794
277.86358
278.79734
279.88841
281.16145
282.6297
284.22538
285.89975
287.61997
289.31378
290.90864
292.34239
293.58216
294.62039
295.46754
296.14448
296.66831
297.08137
297.40256
297.65581
297.85187
298.00197
298.12927
298.26536
298.37896
298.44386
298.4697
298.43663
298.28759
298.19765
298.1213
291.05538
290.33975
288.73489
285.50474
278.84102
271.8549
272.05338
271.48659
272.32223
272.11631
272.69933
272.72285
273.19966
273.40399
273.86809
274.23512
274.76226
275.29696
275.95203
276.68104
277.53773
278.53734
279.71742
281.08794
282.60359
284.23445
285.96866
287.7336
289.45691
291.05986
292.48652
293.70935
294.72605
295.55131
296.20868
296.71593
297.11626
297.42834
297.67568
297.86693
298.01399
298.14149
298.28063
298.39013
298.45162
298.47552
298.42038
298.279
298.1959
298.12002
290.67477
289.83301
288.09499
284.7045
277.58324
271.09457
271.59793
271.02581
271.8686
271.66374
272.25285
272.28301
272.76592
272.98256
273.45496
273.83866
274.37852
274.93587
275.61686
276.38721
277.30154
278.38498
279.64626
281.06061
282.61099
284.30353
286.0907
287.8987
289.64206
291.24574
292.65798
293.85752
294.84763
295.64708
296.28186
296.77017
297.15597
297.45758
297.69792
297.88351
298.02738
298.15579
298.29602
298.39995
298.4577
298.48124
298.4041
298.27163
298.19343
298.1189
290.38171
289.38611
287.4906
283.93807
276.39188
270.45529
271.19999
270.62221
271.47206
271.26892
271.86428
271.90247
272.39165
272.62139
273.1018
273.50278
274.05714
274.6414
275.35825
276.18443
277.17394
278.32182
279.62026
281.06733
282.67826
284.43217
286.27121
288.11205
289.86744
291.46329
292.85385
294.02418
294.98304
295.75311
296.36264
296.82996
297.19969
297.4897
297.72209
297.90131
298.04207
298.17263
298.31188
298.4092
298.46234
298.48464
298.3886
298.26398
298.19076
298.11782
290.10486
288.96882
286.90394
283.18239
275.27783
269.92435
270.85637
270.27522
271.13313
270.93369
271.53605
271.58366
272.07847
272.32172
272.81081
273.2319
273.80704
274.42827
275.19147
276.08465
277.121
278.30156
279.62791
281.1346
282.81001
284.62342
286.50698
288.37313
290.13129
291.71104
293.07273
294.20808
295.13128
295.86867
296.45051
296.89495
297.24721
297.52457
297.74807
297.92021
298.05799
298.19214
298.32809
298.41787
298.46586
298.48676
298.3739
298.25674
298.18796
298.11677
289.91424
288.59469
286.35174
282.4411
274.26505
269.49619
270.57361
269.98961
270.85562
270.66031
271.26917
271.32689
271.82586
272.08464
272.58651
273.03507
273.64016
274.31197
275.12013
276.04396
277.1065
278.31233
279.69748
281.2677
283.0065
284.87449
286.79624
288.67847
290.43047
291.98586
293.31191
294.407
295.29056
295.99241
296.54445
296.96441
297.29799
297.56182
297.77559
297.94003
298.0749
298.21388
298.34454
298.42663
298.4688
298.48793
298.36015
298.24979
298.18522
298.11562
289.7382
288.26093
285.83232
281.70447
273.36773
269.16141
270.35355
269.76521
270.64006
270.44702
271.06249
271.13464
271.63632
271.91636
272.43763
272.92394
273.56222
274.2646
275.09157
276.03807
277.12303
278.38867
279.83301
281.46727
283.26672
285.18415
287.13621
289.02564
290.76231
292.28531
293.56921
294.61911
295.45947
296.12321
296.64363
297.03773
297.35162
297.6012
297.8045
297.96067
298.09256
298.23629
298.36132
298.43642
298.47181
298.48887
298.34729
298.2433
298.18255
298.11444
289.61931
287.98266
285.3558
280.96764
272.59737
268.91152
270.20564
269.60127
270.4931
270.29762
270.92826
271.01064
271.5179
271.82794
272.36868
272.87908
273.52965
274.25215
275.0934
276.07021
277.20896
278.52775
280.03401
281.73075
283.5874
285.54832
287.52283
289.41028
291.12282
292.60589
293.84173
294.84211
295.63618
296.25973
296.74705
297.1142
297.40758
297.64234
297.83464
297.98206
298.11078
298.25814
298.37767
298.44725
298.47573
298.48561
298.33537
298.23716
298.17999
298.11329
289.53658
287.74721
284.91756
280.21792
271.95118
268.73449
270.0903
269.49696
270.38766
270.21321
270.83325
270.9334
271.46735
271.79307
272.3396
272.86647
273.52571
274.2655
275.14215
276.16704
277.35387
278.73177
280.29886
282.05632
283.96629
285.96438
287.95292
289.82917
291.5089
292.94479
294.12709
295.07404
295.81919
296.40079
296.85385
297.19317
297.46541
297.68488
297.86585
298.00424
298.12954
298.27886
298.39256
298.4573
298.48285
298.47592
298.32419
298.23129
298.17748
298.11217
289.48838
287.55376
284.51665
279.44926
271.4294
268.61768
270.02019
269.43409
270.32923
270.16892
270.79186
270.90811
271.4465
271.78569
272.33575
272.87749
273.55759
274.33643
275.25003
276.32082
277.56107
278.9963
280.62393
282.43989
284.39893
286.42743
288.4215
290.27747
291.9162
293.29835
294.42233
295.31259
296.0067
296.54509
296.96305
297.27393
297.52459
297.7284
297.89778
298.02727
298.14905
298.29843
298.40602
298.46654
298.49041
298.45971
298.31332
298.22554
298.17502
298.11108
289.47034
287.38801
284.14467
278.65194
271.02106
268.54844
269.98199
269.40123
270.3007
270.13813
270.7811
270.9068
271.44665
271.80034
272.36423
272.93783
273.64513
274.45972
275.41367
276.53339
277.82613
279.31976
281.00703
282.87926
284.88265
286.93443
288.92511
290.75177
292.34151
293.66376
294.7251
295.55588
296.19727
296.6915
297.07381
297.35586
297.58466
297.77262
297.93023
298.05113
298.16973
298.31716
298.41809
298.47416
298.49605
298.44281
298.30231
298.21984
298.17257
298.11002
289.47449
287.24291
283.79303
277.82782
270.70153
268.51413
269.97676
269.39041
270.30281
270.1545
270.79612
270.94781
271.48139
271.86336
272.44483
273.04806
273.78318
274.63673
275.63152
276.79987
278.1464
279.69799
281.44413
283.36998
285.41264
287.48008
289.45844
291.24706
292.7805
294.03744
295.03256
295.8017
296.38924
296.83879
297.18523
297.43828
297.64513
297.81717
297.96305
298.07584
298.19205
298.33543
298.42886
298.47989
298.50027
298.42563
298.29135
298.21421
298.17013
298.10897
289.49027
287.11097
283.45403
276.9776
270.4686
268.51041
269.99772
269.42797
270.33507
270.18056
270.8495
271.01582
271.56605
271.9737
272.57283
273.20709
273.9712
274.86334
275.90035
277.11844
278.51924
280.1291
281.93329
283.9099
285.9862
288.06118
290.01803
291.75992
293.23009
294.41676
295.34255
296.04836
296.58129
296.98598
297.29656
297.52064
297.70556
297.86173
297.99599
298.1013
298.21627
298.35349
298.43867
298.48415
298.50271
298.40848
298.28059
298.20869
298.16769
298.10793
289.53531
287.01234
283.14418
276.13968
270.33659
268.58107
270.06692
269.50416
270.40936
270.30621
270.94395
271.13467
271.69663
272.12972
272.74609
273.41139
274.20514
275.13691
276.21708
277.48542
278.94137
280.60948
282.47071
284.49465
286.59838
288.67238
290.59859
292.28556
293.68618
294.79839
295.65246
296.29389
296.77198
297.13198
297.407
297.60235
297.76551
297.90596
298.02886
298.1273
298.24213
298.3715
298.44819
298.48764
298.50429
298.39142
298.27015
298.20334
298.16526
298.10686
289.62269
286.95285
282.86402
275.33414
270.29686
268.70043
270.17358
269.61997
270.5279
270.43175
271.08657
271.29772
271.86674
272.32565
272.96044
273.65751
274.48236
275.45457
276.57926
277.89901
279.41102
281.13779
283.05479
285.12231
287.24643
289.31053
291.19672
292.82077
294.14591
295.17995
295.96046
296.53687
296.96019
297.27595
297.51591
297.68293
297.82463
297.94958
298.06142
298.15352
298.26831
298.38975
298.45852
298.49093
298.50572
298.37463
298.26012
298.19817
298.16283
298.10572
289.74416
286.9224
282.59964
274.57058
270.33427
268.82119
270.30935
269.77273
270.6887
270.60734
271.26414
271.49411
272.0729
272.55916
273.21328
273.94313
274.80021
275.81374
276.98424
278.35642
279.92551
281.71103
283.68214
285.78854
287.92542
289.97023
291.80726
293.36093
294.60542
295.55845
296.26433
296.77566
297.1447
297.41699
297.62261
297.76189
297.88255
297.99231
298.09345
298.17952
298.29374
298.40756
298.4696
298.49497
298.50526
298.35834
298.25059
298.1932
298.1604
298.1045
289.88964
286.91475
282.33921
273.86338
270.42471
268.98982
270.48382
269.95575
270.87839
270.80888
271.46976
271.72501
272.31344
272.82773
273.50246
274.26556
275.15645
276.21241
277.43046
278.85649
280.48397
282.32839
284.35151
286.49138
288.63257
290.64822
292.42689
293.90289
295.06209
295.93194
296.56268
297.00919
297.32464
297.55447
297.72664
297.83883
297.93899
298.03394
298.12476
298.20498
298.31777
298.42383
298.47993
298.5016
298.49786
298.34296
298.24159
298.18842
298.15795
298.10318
290.05251
286.92736
282.0729
273.24641
270.60493
269.18389
270.68695
270.16775
271.09572
271.04333
271.70741
271.9875
272.58628
273.12939
273.82573
274.62307
275.54911
276.64873
277.91602
279.39739
281.08436
282.98741
285.05953
287.22646
289.36273
291.33914
293.05052
294.4423
295.51253
296.298
296.85379
297.23617
297.49902
297.68771
297.82751
297.91333
297.99363
298.07428
298.15525
298.22976
298.3403
298.43828
298.48912
298.50873
298.48255
298.32867
298.23311
298.18382
298.15549
298.10177
290.22915
286.9612
281.79475
272.70582
270.77749
269.40706
270.91755
270.40954
271.33626
271.30693
271.9735
272.28018
272.88951
273.46222
274.18128
275.01365
275.97672
277.12158
278.44029
279.97874
281.72655
283.68754
285.80506
287.99153
290.11296
292.0397
293.67485
294.97639
295.95485
296.6554
297.13657
297.45573
297.66726
297.81629
297.92499
297.98506
298.04613
298.11321
298.18488
298.25398
298.36174
298.45085
298.49627
298.51308
298.46367
298.31514
298.2251
298.1794
298.15301
298.10026
290.41768
287.01547
281.50359
272.24142
271.01427
269.65682
271.17409
270.67777
271.6046
271.59779
272.26707
272.60052
273.22144
273.82424
274.5676
275.4362
276.43815
277.63
279.00221
280.59952
282.4089
284.42651
286.58444
288.78198
290.87783
292.74442
294.29504
295.5016
296.38686
297.0025
297.40941
297.66664
297.8287
297.93972
298.01874
298.05374
298.09617
298.15061
298.2137
298.27803
298.38246
298.46184
298.50143
298.51591
298.4447
298.30203
298.21753
298.17517
298.1505
298.09863
290.60757
287.08043
281.19048
271.85401
271.27396
269.93025
271.45266
270.97114
271.89555
271.91418
272.58567
272.94719
273.58041
274.21427
274.98357
275.88961
276.93278
278.17374
279.60196
281.25995
283.13166
285.20373
287.39626
289.59511
291.65408
293.44983
294.9083
296.01646
296.80795
297.3384
297.67108
297.86801
297.98306
298.05767
298.10842
298.11934
298.14351
298.18636
298.24175
298.30231
298.40268
298.47235
298.50541
298.51761
298.42555
298.28955
298.21045
298.17114
298.14795
298.09687
290.78857
287.15679
280.8633
271.544
271.56503
270.22833
271.75085
271.28829
272.20949
272.25412
272.9282
273.31871
273.9654
274.63132
275.42854
276.37358
277.46037
278.75264
280.23923
281.95943
283.89336
286.01668
288.23638
290.42579
292.43601
294.15075
295.51109
296.51926
297.21666
297.66103
297.92001
298.05887
298.12987
298.16972
298.19337
298.18192
298.18824
298.2203
298.26899
298.32682
298.42217
298.48322
298.50937
298.5188
298.40676
298.2779
298.20393
298.16731
298.14534
298.09498
290.9695
287.24148
280.52391
271.31814
271.87773
270.54654
272.06724
271.62646
272.54411
272.61649
273.29349
273.7144
274.37591
275.075
275.90215
276.88793
278.02113
279.3673
280.91467
282.69857
284.69417
286.86451
289.10273
291.27085
293.22008
294.8444
296.10239
297.00978
297.61128
297.96815
298.15564
298.2393
298.26877
298.27569
298.27297
298.24144
298.23087
298.25228
298.2953
298.35088
298.44028
298.49438
298.51473
298.52025
298.38884
298.26723
298.19798
298.16366
298.14265
298.09293
291.12475
287.32325
280.1724
271.1795
272.21021
270.88437
272.40271
271.98534
272.89961
273.00117
273.68143
274.13382
274.81159
275.54503
276.40452
277.43316
278.61561
280.01809
281.62834
283.47679
285.53236
287.74393
289.99045
292.12452
294.00071
295.52697
296.68059
297.48549
297.98724
298.2578
298.37731
298.4099
298.39916
298.37553
298.34711
298.29717
298.2721
298.28221
298.32054
298.37343
298.45649
298.50512
298.52285
298.51768
298.37242
298.25766
298.19258
298.16014
298.13985
298.09074
291.27216
287.41032
279.82451
271.13086
272.56134
271.24242
272.75666
272.36467
273.27532
273.40713
274.09179
274.57656
275.27263
276.04159
276.93616
278.00988
279.24466
280.70599
282.38118
284.29471
286.40778
288.65345
290.89667
292.98316
294.77489
296.19747
297.24523
297.94213
298.34243
298.52914
298.58598
298.57096
298.52189
298.4693
298.41638
298.34791
298.31203
298.31027
298.34458
298.39436
298.47071
298.51482
298.53135
298.51008
298.35774
298.24923
298.18768
298.15671
298.13692
298.08839
291.38513
287.48278
279.48124
271.16568
272.92548
271.61917
273.12768
272.76431
273.67068
273.83514
274.52431
275.04297
275.75904
276.56535
277.49798
278.61924
279.9092
281.43156
283.17323
285.15144
287.31801
289.58873
291.81564
293.84082
295.53835
296.85413
297.79197
298.37496
298.67406
298.78305
298.78371
298.72185
298.63638
298.55671
298.48051
298.39468
298.34949
298.33695
298.36735
298.41414
298.48324
298.52231
298.5366
298.49875
298.34491
298.24182
298.1832
298.15334
298.13388
298.08592
291.48884
287.54461
279.15872
271.28275
273.30801
272.01604
273.51803
273.18433
274.08652
274.2845
274.97949
275.53315
276.27185
277.11739
278.09101
279.2624
280.61029
282.19596
284.00535
286.04742
288.26205
290.54736
292.74362
294.69423
296.28982
297.49632
298.31555
298.78125
298.9828
299.02382
298.96884
298.86232
298.74297
298.63795
298.53986
298.43771
298.38354
298.36274
298.38879
298.43327
298.49431
298.52724
298.53982
298.48533
298.33376
298.23528
298.17911
298.15003
298.13072
298.08334
291.57569
287.58368
278.87311
271.47094
273.7065
272.43167
273.92642
273.62421
274.52251
274.75535
275.45801
276.04826
276.81228
277.69892
278.71665
279.94049
281.34889
282.99964
284.87747
286.98102
289.23651
291.52372
293.67449
295.53843
297.02703
298.11856
298.81035
299.1588
299.27294
299.25016
299.1408
298.99243
298.84161
298.71309
298.59451
298.47734
298.41421
298.38752
298.40884
298.45187
298.50427
298.53066
298.54154
298.47093
298.32341
298.22933
298.17537
298.14683
298.1275
298.08063
291.64821
287.5976
278.63655
271.72411
274.12187
272.8676
274.35296
274.08461
274.97949
275.24893
275.9613
276.58976
277.38181
278.31114
279.37598
280.65468
282.12609
283.84379
285.79028
287.95209
290.23926
292.51442
294.60446
296.37155
297.74941
298.71464
299.27326
299.50989
299.54821
299.46021
299.29991
299.11249
298.9326
298.78231
298.64445
298.51327
298.44227
298.41116
298.42745
298.4696
298.51387
298.53405
298.54266
298.45579
298.31328
298.2237
298.17197
298.14388
298.12433
298.0778
291.70729
287.57742
278.45424
272.03303
274.55117
273.3237
274.7985
274.56675
275.459
275.76738
276.49088
277.159
277.98142
278.95541
280.07021
281.40613
282.94275
284.72884
286.74321
288.95799
291.26549
293.51302
295.52802
297.19036
298.45151
299.27772
299.70216
299.8406
299.80477
299.65439
299.44626
299.22265
299.01605
298.84571
298.68961
298.5457
298.46803
298.43361
298.4447
298.4857
298.52329
298.53831
298.54394
298.43986
298.303
298.21805
298.16875
298.14132
298.12137
298.07484
291.76068
287.52349
278.33535
272.3979
274.99921
273.8016
275.26555
275.07313
275.96313
276.31221
277.048
277.75663
278.61236
279.63267
280.80053
282.19601
283.80018
285.65586
287.73658
289.99737
292.31191
294.51563
296.44257
297.99438
299.12619
299.80451
300.10073
300.15273
300.04213
299.83297
299.58037
299.32337
299.09231
298.9035
298.73002
298.57483
298.49171
298.45486
298.46091
298.49946
298.53198
298.54448
298.54222
298.42325
298.29241
298.21209
298.16542
298.13904
298.11895
298.07174
291.80555
287.43872
278.29085
272.81271
275.46907
274.30482
275.75646
275.60498
276.49264
276.88295
277.63322
278.38346
279.27561
280.34445
281.5682
283.02557
284.69924
286.62506
288.76881
291.06606
293.37228
295.51598
297.34397
298.7791
299.76465
300.292
300.47535
300.44284
300.26033
299.99628
299.70252
299.4149
299.16159
298.95582
298.7658
298.60088
298.51339
298.4748
298.47629
298.511
298.5393
298.55061
298.53663
298.4062
298.28165
298.20585
298.16189
298.13706
298.11664
298.06857
291.85316
287.32967
278.32559
273.25246
275.96147
274.83381
276.27019
276.16152
277.04691
277.4799
278.24723
279.04105
279.97254
281.092
282.37449
283.89621
285.64138
287.63738
289.83927
292.16127
294.44249
296.5108
298.23099
299.53687
300.36334
300.7436
300.82834
300.7102
300.46006
300.14501
299.81333
299.49776
299.22426
299.00291
298.79713
298.6241
298.53314
298.49331
298.49088
298.52095
298.54444
298.55336
298.52795
298.38912
298.27105
298.19966
298.15835
298.13509
298.11414
298.06544
291.89286
287.19637
278.438
273.72772
276.47121
275.38419
276.80598
276.74192
277.62724
278.10456
278.89204
279.73058
280.70459
281.87687
283.22084
284.80945
286.62747
288.69239
290.94469
293.27724
295.51562
297.49485
299.09963
300.25775
300.91765
301.16626
301.15609
300.95504
300.64172
300.2796
299.91322
299.57231
299.28063
299.04504
298.82425
298.64474
298.55103
298.51019
298.50486
298.52952
298.54792
298.55493
298.51657
298.37252
298.26092
298.19369
298.15481
298.13302
298.11134
298.06244
291.93421
287.05074
278.6261
274.28627
276.99991
275.95843
277.36483
277.34929
278.23526
278.75936
279.56893
280.45338
281.473
282.70022
284.10892
285.7669
287.65922
289.78995
292.08316
294.40957
296.588
298.46552
299.9443
300.93596
301.42923
301.56466
301.45722
301.17823
300.80623
300.40086
300.00287
299.6391
299.33111
299.08247
298.84739
298.66305
298.56717
298.5255
298.51785
298.53697
298.55056
298.55543
298.50343
298.35685
298.25147
298.18802
298.15126
298.13079
298.10827
298.05955
291.96445
286.89458
278.88605
274.81146
277.55133
276.56048
277.94959
277.98564
278.8727
279.44486
280.27884
281.21036
282.27898
283.56414
285.04073
286.77045
288.73698
290.92813
293.24924
295.55139
297.65328
299.41855
300.75323
301.56611
301.90513
301.93472
301.73215
301.38027
300.95416
300.50933
300.08275
299.69853
299.37595
299.11532
298.86687
298.67924
298.58166
298.53902
298.52939
298.54386
298.55372
298.55593
298.4887
298.34241
298.24279
298.18266
298.14767
298.12839
298.10497
298.05669
291.99573
286.73825
279.21151
275.39457
278.12674
277.19102
278.56171
278.65136
279.54031
280.16104
281.02264
282.00299
283.12453
284.47088
286.0184
287.82219
289.86146
292.10547
294.43902
296.69812
298.70818
300.35081
301.51749
302.14663
302.35337
302.27431
301.98187
301.56232
301.08659
300.60591
300.15361
299.75114
299.41542
299.14356
298.88319
298.69337
298.5944
298.55021
298.53922
298.54969
298.55798
298.5538
298.47263
298.32911
298.23475
298.17762
298.1441
298.12577
298.10149
298.05385
292.03311
286.5837
279.59008
276.00202
278.72591
277.84975
279.20051
279.3462
280.23783
280.90872
281.80173
282.83362
284.01228
285.42325
287.04463
288.92347
291.03181
293.31752
295.64541
297.84267
299.74686
301.25001
302.23098
302.68385
302.77011
302.58362
302.20705
301.72512
301.20422
300.69124
300.21594
299.79723
299.44967
299.16727
298.89684
298.70541
298.60553
298.56054
298.54783
298.55406
298.56028
298.5486
298.45561
298.31671
298.22713
298.17283
298.14076
298.12292
298.09786
298.05104
292.10096
286.44507
280.02144
276.64447
279.34984
278.53591
279.8656
280.06961
280.96632
281.6898
282.61922
283.70526
284.94542
286.42406
288.1219
290.07574
292.24722
294.56072
296.86341
298.98082
300.76649
302.10644
302.88993
303.18643
303.15359
302.8638
302.40907
301.87001
301.30819
300.76622
300.2704
299.83723
299.47906
299.18737
298.90786
298.71544
298.61489
298.56937
298.55555
298.55727
298.56136
298.54061
298.43835
298.30479
298.21974
298.16819
298.13765
298.11982
298.09412
298.04827
292.198
286.32221
280.44779
277.31559
279.99399
279.24915
280.55726
280.82558
281.72789
282.50808
283.47834
284.6216
285.92721
287.47658
289.25235
291.27908
293.50423
295.82825
298.08515
300.10546
301.75767
302.90972
303.49624
303.65543
303.50199
303.11562
302.58887
301.99788
301.3993
300.83145
300.31737
299.87147
299.50419
299.20459
298.91633
298.72369
298.62291
298.57697
298.56244
298.56003
298.56148
298.53041
298.42128
298.29329
298.21257
298.16364
298.13461
298.11648
298.09029
298.04556
292.31494
286.21151
281.07799
278.01263
280.66136
279.99307
281.28184
281.61648
282.52988
283.36695
284.38272
285.58639
286.96075
288.58377
290.43801
292.53332
294.79974
297.11481
299.30563
301.21279
302.70923
303.6554
304.05914
304.08814
303.81703
303.34072
302.74806
302.11014
301.47862
300.88767
300.35737
299.90064
299.52606
299.21842
298.9225
298.73055
298.63009
298.58358
298.56797
298.56296
298.56105
298.519
298.40467
298.28229
298.20561
298.15909
298.13151
298.11292
298.08641
298.04291
292.46782
286.12713
281.70146
278.74992
281.36382
280.77639
282.04464
282.44647
283.37491
284.27002
285.33586
286.60278
288.04985
289.74846
291.67984
293.83589
296.12737
298.41173
300.51675
302.2951
303.60745
304.33987
304.5854
304.4807
304.09937
303.5402
302.88773
302.20771
301.54681
300.93528
300.39089
299.92553
299.5455
299.22635
298.92708
298.73648
298.63676
298.58966
298.57212
298.5638
298.55892
298.50642
298.38877
298.27183
298.19885
298.15449
298.12831
298.10917
298.0825
298.04035
292.70124
286.06772
282.26791
279.53005
282.10088
281.59899
282.8458
283.31772
284.26545
285.22059
286.34168
287.67485
289.19771
290.97313
292.97807
295.18427
297.48154
299.71325
301.71286
303.3424
304.44582
304.97171
305.07173
304.83539
304.35107
303.71603
303.00956
302.29184
301.60466
300.97501
300.41898
299.9471
299.56182
299.23077
298.93104
298.74199
298.64294
298.59475
298.57498
298.56365
298.55501
298.49305
298.37364
298.26191
298.19231
298.14985
298.12499
298.10525
298.0786
298.03788
292.99644
286.02015
282.96377
280.34769
282.86952
282.46189
283.68824
284.23381
285.20516
286.22346
287.40434
288.80709
290.40787
292.25943
294.33129
296.57257
298.85356
301.01025
302.88581
304.33875
305.21716
305.55923
305.51443
305.15258
304.57337
303.86949
303.1146
302.36322
301.65282
301.00789
300.44302
299.96589
299.57099
299.23319
298.9347
298.74736
298.64834
298.59827
298.57597
298.563
298.54944
298.47915
298.35924
298.25247
298.18599
298.14527
298.12153
298.1012
298.07472
298.03549
293.35748
285.99973
283.68832
281.21196
283.67742
283.37081
284.57748
285.19971
286.1997
287.28322
288.52911
290.00309
291.68289
293.60798
295.73708
297.99525
300.23642
302.29628
304.02833
305.27341
305.9257
306.10409
305.91358
305.43468
304.76851
304.00252
303.20427
302.42296
301.69264
301.03569
300.46413
299.98137
299.5758
299.23428
298.93631
298.75217
298.65256
298.60043
298.57586
298.5622
298.54234
298.46496
298.34553
298.24344
298.17988
298.14083
298.11792
298.09703
298.07089
298.0332
293.79304
286.0096
284.47037
282.12609
284.52755
284.32856
285.51771
286.22078
287.25457
288.40499
289.7198
291.26687
293.02488
295.01805
297.19033
299.4434
301.62018
303.56103
305.12283
306.13759
306.57959
306.60168
306.27
305.68299
304.93798
304.11635
303.27956
302.47226
301.72589
301.05974
300.48151
299.98962
299.57839
299.23387
298.93642
298.75476
298.65497
298.60108
298.575
298.56033
298.53399
298.45066
298.33251
298.23483
298.17398
298.13647
298.11416
298.09277
298.06714
298.031
294.29981
286.04776
285.29828
283.09429
285.42554
285.34036
286.51449
287.30265
288.37505
289.59425
290.98034
292.60091
294.43482
296.48747
298.68544
300.90905
302.9971
304.79766
306.15625
306.92938
307.18743
307.0497
306.58629
305.90025
305.08412
304.21276
303.34204
302.51325
301.75441
301.07954
300.49196
299.99403
299.57981
299.2321
298.93575
298.75557
298.65587
298.60093
298.57332
298.55735
298.52489
298.4364
298.32009
298.22661
298.16826
298.13217
298.11023
298.08843
298.06347
298.0289
294.8858
286.12526
286.18178
284.12189
286.38134
286.41162
287.57848
288.44634
289.56713
290.85443
292.31402
294.00825
295.91266
298.01204
300.21333
302.38117
304.35494
305.99007
307.11602
307.6558
307.74332
307.44933
306.86391
306.08814
305.20838
304.29303
303.39345
302.54774
301.77769
301.09134
300.49744
299.99623
299.57962
299.22919
298.93445
298.7553
298.65593
298.60037
298.57063
298.55337
298.51484
298.42235
298.3083
298.21875
298.16267
298.12789
298.10615
298.08407
298.05989
298.0269
295.55796
286.28463
287.119
285.21582
287.39624
287.54965
288.71263
289.66064
290.83431
292.18991
293.72426
295.48968
297.45667
299.58579
301.76548
303.85046
305.6854
307.12219
307.99616
308.32955
308.24433
307.80315
307.10601
306.24936
305.31293
304.35928
303.43622
302.57628
301.79224
301.09764
300.50011
299.99714
299.57768
299.22509
298.93237
298.75469
298.65546
298.59909
298.56736
298.54834
298.50403
298.40858
298.29716
298.2112
298.15717
298.12361
298.10192
298.07972
298.05641
298.025
296.30238
286.52421
288.10968
286.38318
288.47689
288.76019
289.92193
290.94942
292.17977
293.60419
295.21353
297.0466
299.06348
301.19995
303.32961
305.30368
306.97385
308.17708
308.80073
308.94609
308.69031
308.11291
307.3145
306.38566
305.39947
304.41364
303.47174
302.59577
301.80006
301.10071
300.50111
299.99638
299.57419
299.21994
298.9298
298.75372
298.65449
298.59695
298.5634
298.54228
298.49265
298.39513
298.28657
298.20392
298.15171
298.11929
298.09759
298.07544
298.05301
298.02319
297.11618
286.87066
289.16121
287.63157
289.63223
290.04499
291.21046
292.31571
293.60765
295.10212
296.78482
298.67755
300.72676
302.8447
304.89449
306.72947
308.20222
309.1473
309.54201
309.50273
309.08428
308.38209
307.49261
306.49973
305.47065
304.45869
303.49911
302.60668
301.80411
301.10181
300.50054
299.99381
299.56936
299.21397
298.92672
298.75195
298.65255
298.59399
298.55871
298.53527
298.48085
298.38209
298.27647
298.19687
298.14629
298.11493
298.09319
298.07123
298.04972
298.02148
297.98023
287.34826
290.2722
288.96215
290.8675
291.40915
292.57925
293.76396
295.12395
296.68907
298.43994
300.38
302.43756
304.50637
306.44504
308.11231
309.35071
310.0312
310.22079
309.99681
309.42807
308.61295
307.64245
306.59368
305.52859
304.49512
303.51547
302.61246
301.80562
301.10096
300.49791
299.98974
299.56342
299.20736
298.9232
298.74945
298.64975
298.5902
298.55328
298.52737
298.46881
298.3695
298.26677
298.19002
298.14096
298.11051
298.08874
298.06708
298.04652
298.01987
298.87607
288.00515
291.44471
290.37286
292.18636
292.84854
294.04399
295.30301
296.7376
298.36899
300.17899
302.14625
304.18409
306.17107
307.96712
309.43371
310.40833
310.8411
310.83328
310.43214
309.72578
308.80934
307.76735
306.6707
305.57614
304.52054
303.52454
302.6152
301.80493
301.09788
300.49371
299.98438
299.55658
299.20028
298.91925
298.74625
298.64614
298.58557
298.54709
298.5187
298.45669
298.35737
298.25743
298.18337
298.1357
298.10603
298.08424
298.06303
298.04342
298.01835
299.74701
288.90971
292.67531
291.87014
293.59096
294.38081
295.61024
296.94679
298.45242
300.14474
301.99768
303.96633
305.95049
307.82116
309.44245
310.67075
311.36933
311.5815
311.37505
310.81052
309.97996
308.97379
307.86976
306.73313
305.61362
304.53566
303.52946
302.61523
301.80164
301.09304
300.48811
299.97797
299.54903
299.19285
298.91493
298.74241
298.64171
298.58008
298.54017
298.50939
298.44463
298.34575
298.24843
298.17688
298.13051
298.10153
298.07974
298.05907
298.04042
298.01693
300.55567
290.1408
293.9915
293.45743
295.10073
296.01834
297.29219
298.70232
300.27375
302.01428
303.88613
305.82537
307.71949
309.4392
310.85173
311.80909
312.24577
312.24757
311.85065
311.13672
310.19518
309.11025
307.95335
306.78381
305.63864
304.54436
303.53103
302.61255
301.79646
301.08677
300.48145
299.97073
299.54098
299.18523
298.91027
298.73794
298.6365
298.57375
298.53258
298.49956
298.43274
298.33463
298.23975
298.17053
298.12535
298.09698
298.07525
298.0552
298.03752
298.01562
301.29801
291.66128
295.42209
295.15387
296.73742
297.7786
299.10201
300.57331
302.19958
303.96944
305.83147
307.70413
309.47028