/*--------------------------------*- C++ -*----------------------------------*\
  =========                 |
  \\      /  F ield         | OpenFOAM: The Open Source CFD Toolbox
   \\    /   O peration     | Website:  https://openfoam.org
    \\  /    A nd           | Version:  8
     \\/     M anipulation  |
\*---------------------------------------------------------------------------*/
FoamFile
{
    version     2.0;
    format      ascii;
    class       volVectorField;
    location    "0.0900078";
    object      U;
}
// * * * * * * * * * * * * * * * * * * * * * * * * * * * * * * * * * * * * * //

dimensions      [0 1 -1 0 0 0 0];

internalField   nonuniform List<vector> 
20000
(
(205.85499 -1.7080399e-16 5.0518223)
(244.41547 0 6.2162922)
(270.43342 0 6.6958942)
(293.13706 8.3240069e-17 7.0972622)
(313.62508 -7.0868534e-17 7.1972564)
(330.11375 0 7.6372523)
(331.39262 0 6.8267443)
(333.5936 0 8.0569634)
(331.83002 0 6.4698215)
(332.73158 0 8.1973217)
(331.67752 -1.5847385e-18 6.3567724)
(331.90203 1.0264579e-17 8.0387403)
(331.08915 -6.4124562e-18 6.4041437)
(330.83804 -2.2311161e-19 7.7028294)
(330.04594 -3.137219e-18 6.4633042)
(329.4009 0 7.2720614)
(328.43116 2.3932401e-20 6.4107902)
(327.37328 -3.4015393e-18 6.7642223)
(326.05138 -7.1109154e-19 6.1450684)
(324.48788 0 6.1222683)
(322.63017 -1.4596382e-17 5.5764504)
(320.42369 -1.3003912e-17 5.253534)
(317.85138 -9.3705148e-18 4.6505432)
(314.83045 1.557235e-17 4.0782095)
(311.33677 -1.2628138e-17 3.3537305)
(307.29677 -2.9934695e-18 2.6268783)
(302.65885 0 1.8149485)
(297.53389 -1.5804068e-17 1.0788816)
(292.21711 -3.8833216e-17 0.56814799)
(286.99132 2.0576709e-17 0.28478248)
(282.05796 0 0.2046297)
(277.60129 0 0.27794964)
(273.72667 0 0.4333576)
(270.47731 0 0.59723348)
(267.83996 -1.542141e-18 0.72363081)
(265.7729 -1.1086191e-16 0.77673581)
(264.18291 2.8501423e-17 0.75108907)
(262.98884 -8.4730736e-17 0.65496881)
(262.10463 1.2878001e-16 0.50096909)
(261.46694 9.6580324e-17 0.30835928)
(261.03339 5.5478088e-19 0.09790868)
(260.72421 1.049547e-16 -0.13522311)
(260.4822 0 -0.38559435)
(260.2662 2.8587322e-17 -0.60541179)
(260.14862 -2.1121189e-17 -0.75232704)
(260.13078 -1.5448879e-17 -0.81735497)
(260.21293 1.1738739e-17 -0.75280741)
(260.63594 7.101299e-17 -0.53213058)
(261.07426 -2.1332746e-19 -0.32688679)
(261.13898 1.683908e-19 -0.41713438)
(209.38224 -1.7273117e-16 4.3215715)
(248.22578 1.2254143e-16 5.3075676)
(274.4008 9.9574289e-17 5.6825584)
(297.09521 -1.2892404e-18 6.0019516)
(317.38873 5.9483305e-19 5.9675752)
(332.967 -6.1020447e-17 6.4235334)
(333.30327 0 5.5367115)
(335.50101 -4.3133495e-17 6.8516942)
(333.72626 -2.2856793e-18 5.1512915)
(334.63028 2.6170602e-17 6.9918928)
(333.5567 1.5665971e-18 5.0460585)
(333.78101 0 6.8240557)
(332.94886 -6.4829964e-18 5.1079405)
(332.68593 -7.1745916e-18 6.4719598)
(331.87289 7.4853477e-18 5.181929)
(331.20243 1.1192999e-17 6.0235802)
(330.20169 4.1689705e-18 5.1359754)
(329.09963 0 5.4960182)
(327.72574 0 4.8626562)
(326.09502 2.8594725e-17 4.8343817)
(324.16002 2.3666907e-17 4.2844837)
(321.86202 -2.6297297e-17 3.9585564)
(319.17383 -1.0761014e-17 3.3544195)
(315.99755 0 2.7761436)
(312.28703 -1.4876018e-17 2.0441068)
(307.93684 -1.2449227e-17 1.2986918)
(302.92395 9.910059e-17 0.5164428)
(297.63647 4.8696337e-17 -0.12902432)
(292.24027 -1.1784174e-16 -0.523462)
(286.93777 -2.1241608e-17 -0.66709352)
(281.95851 -1.7201763e-17 -0.59839608)
(277.48474 1.3280279e-16 -0.37635791)
(273.6196 0 -0.083107423)
(270.39185 -9.7038966e-17 0.20108278)
(267.77918 -2.4803244e-17 0.42878391)
(265.7334 7.6074572e-17 0.56363181)
(264.15944 0 0.60120604)
(262.97452 -8.6677405e-17 0.55250466)
(262.09299 -1.2950015e-16 0.43330694)
(261.4571 -7.2175939e-17 0.26648191)
(261.02323 1.7856478e-17 0.073749493)
(260.71085 -1.314424e-16 -0.14933267)
(260.45208 -1.9387049e-17 -0.39557929)
(260.21638 -1.4298526e-17 -0.61143451)
(260.11026 1.8968035e-16 -0.75174062)
(260.12446 -2.4986027e-16 -0.81299474)
(260.21372 0 -0.73709805)
(260.71119 -7.0208611e-17 -0.5095834)
(261.05419 -2.2162967e-16 -0.31231069)
(261.14111 5.9218361e-18 -0.40542505)
(212.64843 0 3.5710312)
(251.84792 0 4.3611676)
(278.20058 1.0277053e-16 4.6422622)
(300.89403 -8.6111582e-17 4.8901973)
(320.98738 -1.1551227e-18 4.7176476)
(335.59683 -6.3771593e-17 5.1896581)
(335.14 5.251426e-17 4.2007427)
(337.34692 -2.4541108e-17 5.6203096)
(335.54964 3.8772102e-17 3.7959159)
(336.46429 3.8196092e-18 5.7542454)
(335.36793 -1.2627245e-17 3.697105)
(335.59206 0 5.5673957)
(334.74019 1.3126007e-17 3.77229)
(334.46277 1.4580519e-17 5.192383)
(333.62761 -6.0945101e-18 3.8568002)
(332.92711 -1.0142231e-17 4.719862)
(331.89191 0 3.8089307)
(330.74085 -2.0964019e-17 4.1665869)
(329.31288 5.7975046e-18 3.5217014)
(327.6134 1.9157412e-17 3.4839933)
(325.59943 -1.7312416e-19 2.9313301)
(323.19839 2.6644769e-17 2.5967827)
(320.36727 4.4082405e-17 1.9831416)
(316.98714 0 1.3857777)
(312.99341 5.9844531e-17 0.63445431)
(308.30817 -2.4833008e-17 -0.11957996)
(303.08553 -6.0696439e-17 -0.84557423)
(297.65067 0 -1.3738044)
(292.13248 1.0631944e-16 -1.6360579)
(286.74006 1.7107142e-16 -1.6328974)
(281.72428 0 -1.4052257)
(277.25418 -1.0766363e-16 -1.0286628)
(273.41759 0 -0.59518605)
(270.22899 -9.8171272e-17 -0.19055034)
(267.65638 -2.5043415e-17 0.13722987)
(265.64525 3.8456284e-17 0.35215254)
(264.09839 -2.8944071e-17 0.45136568)
(262.93182 1.7441185e-16 0.4487206)
(262.06085 -3.2585894e-17 0.3635327)
(261.4331 2.4136884e-17 0.22224514)
(261.00409 0 0.046917257)
(260.69093 0 -0.16716031)
(260.41134 -3.2956025e-16 -0.40898089)
(260.17591 4.2780805e-17 -0.61881976)
(260.08209 -1.8908959e-16 -0.75066935)
(260.10948 2.6406471e-16 -0.80891285)
(260.23482 -1.1555716e-17 -0.71845635)
(260.74717 0 -0.48593416)
(261.04852 4.3602097e-16 -0.29982056)
(261.13753 -1.2855671e-17 -0.39418358)
(215.88503 8.8796168e-17 2.7707332)
(255.43326 -1.2830851e-16 3.3825088)
(281.93673 -1.6257675e-18 3.5496143)
(304.59538 1.3552755e-18 3.7270473)
(324.4171 7.4657533e-17 3.4095954)
(337.99514 -6.0643873e-17 3.9152928)
(336.87484 5.3205446e-17 2.8205406)
(339.09564 -1.9292795e-17 4.353278)
(337.27623 0 2.3993603)
(338.19903 -7.6348383e-18 4.4794057)
(337.07895 3.2002804e-18 2.307816)
(337.30126 -2.6555392e-18 4.2716016)
(336.42775 -1.7735965e-17 2.3941997)
(336.1333 -7.4042129e-18 3.868993)
(335.27258 0 2.4846936)
(334.53803 0 3.3658355)
(333.46435 0 2.4302087)
(332.26158 1.4211031e-17 2.7845053)
(330.77827 -1.167472e-17 2.1295617)
(329.00851 -8.8030219e-17 2.0821552)
(326.90789 -3.256348e-17 1.5236261)
(324.38021 4.0208575e-17 1.1713108)
(321.36299 1.1068638e-17 0.53553397)
(317.72286 9.217088e-17 -0.093869384)
(313.40585 4.5634995e-17 -0.86596914)
(308.46516 0 -1.5952918)
(303.11156 0 -2.2269513)
(297.53381 0 -2.6328241)
(291.88213 0 -2.7594227)
(286.42249 -1.9504827e-16 -2.5981461)
(281.39213 -2.795277e-19 -2.2058437)
(276.94628 1.3516728e-17 -1.6721733)
(273.15648 0 -1.0982634)
(270.0221 5.2892102e-16 -0.57439754)
(267.50127 0 -0.14826225)
(265.53416 -3.8771437e-17 0.14505385)
(264.02137 2.9153973e-17 0.30448376)
(262.87813 0 0.34679495)
(262.02135 5.2349676e-16 0.2949873)
(261.40426 2.4282584e-17 0.17896916)
(260.98172 -1.7899972e-17 0.020737987)
(260.66775 0 -0.18520453)
(260.36893 2.9074351e-16 -0.42230214)
(260.1382 1.4229043e-17 -0.62530684)
(260.05426 0 -0.74853594)
(260.09154 4.9435018e-16 -0.8001636)
(260.26962 0 -0.69893242)
(260.77241 0 -0.46337412)
(261.041 -2.079404e-16 -0.28817739)
(261.13512 0 -0.38262334)
(219.03598 9.1416227e-17 1.8429612)
(258.90339 2.0106817e-18 2.3933058)
(285.54133 -5.2215094e-17 2.4076686)
(308.14939 8.888052e-17 2.5137092)
(327.6231 -3.7815537e-17 2.0474729)
(340.14755 1.5856279e-17 2.6079138)
(338.48306 -3.3448038e-18 1.4027905)
(340.72004 -1.1161145e-17 3.0583363)
(338.87611 0 0.96737838)
(339.80706 9.7176749e-18 3.170971)
(338.66118 1.1286917e-17 0.88041596)
(338.87983 1.0731015e-17 2.9366606)
(337.98227 9.003621e-18 0.97473012)
(337.6673 7.4164764e-18 2.49992)
(336.77771 6.2128476e-18 1.0660812)
(336.00535 -2.0662281e-17 1.9608522)
(334.89081 3.4401884e-17 1.0026029)
(333.63414 -1.4233404e-17 1.3528177)
(332.09149 5.9632444e-17 0.6902929)
(330.24203 3.9735526e-17 0.62906791)
(328.03295 0 0.05545871)
(325.33674 -5.4661781e-17 -0.33059551)
(322.07894 -2.2754788e-17 -1.0025571)
(318.14518 -1.3094728e-16 -1.6678899)
(313.57996 -1.2330508e-16 -2.4302063)
(308.49581 0 -3.0951206)
(302.99631 -2.0947736e-17 -3.6285657)
(297.24524 1.3495765e-16 -3.9106521)
(291.48214 1.3520153e-17 -3.8867301)
(285.97547 0 -3.5574202)
(280.9534 2.6241272e-16 -2.994551)
(276.55366 2.3455171e-16 -2.3017928)
(272.82932 2.1656683e-17 -1.5881484)
(269.76458 -5.5083987e-16 -0.94716839)
(267.30784 2.5694723e-17 -0.42526414)
(265.3947 1.964867e-17 -0.056016375)
(263.92365 -2.9356219e-17 0.16153803)
(262.80958 3.5307821e-16 0.24719176)
(261.97156 -5.2583815e-16 0.22776231)
(261.36858 2.4368766e-17 0.13644123)
(260.95447 5.5682922e-16 -0.0052380984)
(260.63946 4.2258919e-16 -0.20394432)
(260.32561 0 -0.43590841)
(260.10449 2.8436235e-17 -0.63124365)
(260.029 -6.8859164e-16 -0.74590758)
(260.07282 3.755227e-20 -0.79085833)
(260.31101 0 -0.67841149)
(260.78841 0 -0.44187277)
(261.03634 -6.3900005e-18 -0.27700175)
(261.13253 3.167619e-16 -0.37083251)
(222.09872 -8.9838308e-17 0.88599111)
(262.24027 3.2547297e-17 1.3667875)
(288.99555 0 1.2226635)
(311.54809 -1.1289629e-17 1.2660348)
(330.57877 1.9167357e-17 0.64630745)
(342.04845 -8.0262132e-18 1.2747655)
(339.9448 3.4201411e-18 -0.051334264)
(342.19695 8.8314021e-20 1.7329918)
(340.32549 -7.3785711e-20 -0.50186856)
(341.26327 3.9254852e-18 1.8273671)
(340.08914 -3.3464329e-18 -0.58540993)
(340.30169 -1.0926158e-17 1.5623831)
(339.3773 0 -0.48582417)
(339.03851 -1.5165681e-17 1.0862023)
(338.11762 -1.262558e-17 -0.39620548)
(337.30564 1.056711e-17 0.50999626)
(336.14916 -3.5012886e-17 -0.46781787)
(334.83525 7.2691199e-17 -0.12411885)
(333.22169 -7.2591034e-17 -0.79589025)
(331.26959 3.0156217e-17 -0.87993026)
(328.91227 -1.6579416e-17 -1.4837351)
(325.99575 1.39178e-17 -1.9206671)
(322.47888 -1.0299552e-16 -2.6321149)
(318.3218 7.5826524e-17 -3.3028755)
(313.61512 1.2511105e-16 -4.0194192)
(308.3739 -2.0582669e-16 -4.6154561)
(302.68917 -2.1260365e-17 -5.050214)
(296.78494 1.5454465e-16 -5.1961369)
(290.93235 0 -5.0088962)
(285.40473 2.2430408e-17 -4.5023282)
(280.41557 -2.8277002e-16 -3.7646821)
(276.08363 -2.3696404e-16 -2.9123188)
(272.4429 -2.1888224e-17 -2.0608634)
(269.46234 3.2017326e-16 -1.3058732)
(267.081 3.6206136e-16 -0.69151738)
(265.23081 -1.0758782e-19 -0.24934573)
(263.80836 1.4775134e-17 0.023809371)
(262.72852 -1.0426815e-15 0.15088671)
(261.91323 -5.4473039e-16 0.16262133)
(261.32728 0 0.095179821)
(260.92259 -5.7585613e-16 -0.030663843)
(260.60521 -3.6995313e-16 -0.22281832)
(260.28175 5.8118768e-16 -0.44931146)
(260.07357 2.8374671e-17 -0.63643767)
(260.00649 6.2346849e-16 -0.74297804)
(260.05594 -4.7315939e-16 -0.77811154)
(260.35492 0 -0.65696287)
(260.80332 -5.3534292e-16 -0.42167498)
(261.03422 6.2844521e-18 -0.2662414)
(261.12996 -3.1203445e-16 -0.35888338)
(224.99554 -2.8985685e-18 -0.11521029)
(265.39306 0 0.28896585)
(292.25258 8.4196456e-19 -0.023738652)
(314.75673 -7.1627466e-19 -0.043655428)
(333.24031 0 -0.81401312)
(343.69185 0 -0.097770446)
(341.24069 6.9078537e-18 -1.5506765)
(343.50694 -5.7133396e-18 0.37264131)
(341.60531 0 -2.0092519)
(342.54929 0 0.44907969)
(341.34433 -2.656562e-17 -2.0888207)
(341.54821 2.1981025e-17 0.14950522)
(340.59454 2.7536738e-17 -1.9853843)
(340.22962 0 -0.36874845)
(339.27636 1.2677146e-17 -1.8961158)
(338.42329 2.1239167e-17 -0.98010159)
(337.2212 8.8182459e-18 -1.9759796)
(335.84053 -8.8245588e-17 -1.6470113)
(334.13307 0 -2.3367589)
(332.04112 -8.1296245e-17 -2.4586027)
(329.48562 1.6998159e-17 -3.1082699)
(326.34659 -1.3922896e-17 -3.5969547)
(322.64118 6.9576413e-17 -4.3157766)
(318.35469 1.7291058e-16 -4.9610212)
(313.49347 -1.2687398e-16 -5.630162)
(308.05193 1.8224688e-16 -6.1584139)
(302.18781 2.1108671e-17 -6.4832648)
(296.15031 -2.7799128e-16 -6.4797447)
(290.23539 0 -6.1166005)
(284.71348 -3.6145263e-16 -5.4251772)
(279.7823 0 -4.5099055)
(275.53973 0 -3.4987861)
(272.00018 0 -2.5126183)
(269.11761 3.41475e-17 -1.6476576)
(266.82233 -4.4275533e-16 -0.94488295)
(265.04349 -6.1359014e-16 -0.43334755)
(263.67605 -5.2183249e-16 -0.10755885)
(262.63526 7.5794912e-16 0.058694995)
(261.84664 1.6479896e-17 0.10013869)
(261.28061 -2.4468687e-17 0.055493509)
(260.88583 0 -0.055456066)
(260.5637 -8.1979014e-16 -0.24144075)
(260.23694 -6.3854448e-16 -0.46210756)
(260.04527 0 -0.6406866)
(259.98827 2.0696163e-17 -0.73997271)
(260.04426 -5.7888105e-21 -0.76379962)
(260.39734 -7.4745012e-16 -0.63456385)
(260.81741 5.4531878e-16 -0.40271469)
(261.03392 0 -0.25586109)
(261.1273 0 -0.34685104)
(227.7347 -2.9238564e-18 -1.1655437)
(268.35487 0 -0.8185467)
(295.31034 -3.4128056e-18 -1.2996787)
(317.78537 0 -1.3873952)
(335.59941 0 -2.306282)
(345.08649 8.2269397e-18 -1.4904202)
(342.36277 -2.0964228e-17 -3.0799951)
(344.64172 1.1563997e-17 -1.0136258)
(342.70651 1.9374901e-17 -3.5497632)
(343.6549 -3.2149697e-17 -0.96234877)
(342.41581 -2.7472601e-20 -3.6290706)
(342.60849 -1.1230243e-17 -1.3006813)
(341.62431 -3.7314502e-17 -3.5196477)
(341.23206 1.5474455e-17 -1.8590087)
(340.24467 -5.1682396e-17 -3.427138)
(339.34524 0 -2.50583)
(338.08493 0 -3.5224901)
(336.61606 5.9718652e-17 -3.2232622)
(334.78396 0 -3.9467148)
(332.51487 1.0295716e-19 -4.1232863)
(329.77211 6.8534745e-17 -4.8114913)
(326.48057 1.1380183e-16 -5.3171914)
(322.66356 7.0578655e-17 -6.0185691)
(318.22992 -1.3670202e-16 -6.6396898)
(313.1663 1.6256982e-17 -7.2662423)
(307.52173 -2.2523398e-16 -7.7170091)
(301.49051 0 -7.9175087)
(295.34574 -1.7818328e-17 -7.7505942)
(289.39659 -4.4309023e-16 -7.200622)
(283.9085 7.31584e-16 -6.3183123)
(279.06038 0 -5.2242379)
(274.92809 -4.5745759e-16 -4.0566388)
(271.50631 0 -2.9400058)
(268.73448 0 -1.9699932)
(266.53499 0 -1.1834749)
(264.83506 6.373499e-16 -0.60661487)
(263.52838 4.4960648e-16 -0.23153779)
(262.53098 7.3939909e-16 -0.028631198)
(261.7727 4.9885189e-16 0.040850452)
(261.2292 2.4531328e-17 0.017671359)
(260.84435 0 -0.079591744)
(260.51405 8.7262935e-16 -0.25938199)
(260.19103 -1.9310163e-17 -0.47383466)
(260.01887 9.3120039e-16 -0.64359408)
(259.97422 6.3858813e-16 -0.73688835)
(260.03817 0 -0.7476692)
(260.43663 7.0744697e-16 -0.61134678)
(260.83127 -1.6311285e-17 -0.38486752)
(261.03456 1.8240221e-17 -0.24585589)
(261.12458 5.82847e-16 -0.33478048)
(230.29238 2.9771327e-18 -2.2497587)
(271.10907 0 -1.9831934)
(298.15208 3.480873e-18 -2.6128369)
(320.63171 0 -2.7801725)
(337.64556 0 -3.8443945)
(346.24443 1.672108e-17 -2.916261)
(343.30607 -2.1202945e-17 -4.6513063)
(345.59613 2.3439707e-17 -2.4363272)
(343.62359 -9.80178e-18 -5.1315056)
(344.57483 -1.6252115e-17 -2.4126377)
(343.29959 -1.3569035e-17 -5.2067721)
(343.4801 0 -2.7844793)
(342.46527 1.8831398e-17 -5.0818411)
(342.04258 -1.5728865e-17 -3.3799595)
(341.01329 7.8521956e-17 -4.9886777)
(340.05297 -5.441019e-17 -4.0736865)
(338.71134 -1.8208575e-17 -5.1203083)
(337.12053 3.0212258e-17 -4.8657364)
(335.14872 1.006692e-16 -5.6363411)
(332.73354 7.3296614e-17 -5.8569184)
(329.87147 6.9518575e-17 -6.5487005)
(326.484 -2.1638183e-16 -7.0520315)
(322.52858 -1.3164587e-16 -7.7401028)
(317.89834 -3.8489207e-19 -8.3458815)
(312.62195 2.7797444e-16 -8.9219941)
(306.78236 4.3017781e-16 -9.2812159)
(300.6029 -2.2233463e-17 -9.3421511)
(294.37729 1.7686633e-17 -8.998383)
(288.42355 8.9654475e-16 -8.2520041)
(282.99749 2.414914e-17 -7.1745527)
(278.257 -5.8888298e-16 -5.9021415)
(274.25495 9.2409334e-16 -4.5817383)
(270.96641 0 -3.3399788)
(268.31691 -5.8958104e-16 -2.2706376)
(266.22192 8.7404329e-16 -1.4056242)
(264.60764 2.0092894e-17 -0.76790046)
(263.36683 1.5153598e-17 -0.34720897)
(262.41663 -6.9729177e-16 -0.11040536)
(261.69214 -3.332529e-17 -0.0147394)
(261.1736 -7.8771641e-16 -0.018037504)
(260.79854 1.1565799e-15 -0.1031462)
(260.45657 2.6458446e-17 -0.27632632)
(260.14421 2.5517023e-20 -0.48404137)
(259.99362 -1.8142568e-15 -0.64489384)
(259.96328 -1.9678053e-15 -0.73336913)
(260.03543 -9.5737488e-16 -0.72966629)
(260.47271 -7.2245003e-16 -0.58739669)
(260.84441 1.6122685e-17 -0.36798776)
(261.03558 0 -0.23620224)
(261.12176 -8.6314023e-22 -0.32269527)
(232.66386 0 -3.281687)
(273.6454 6.4830339e-17 -3.2226119)
(300.76626 -3.5035502e-18 -3.9663576)
(323.29291 -4.7973125e-17 -4.216168)
(339.37011 4.0435229e-17 -5.4216616)
(347.17517 -2.5368851e-17 -4.372313)
(344.0627 2.8680107e-17 -6.2605304)
(346.36464 -1.1858627e-17 -3.8921711)
(344.35358 -9.9386221e-18 -6.7495223)
(345.30931 4.4911812e-20 -3.8951699)
(343.99851 2.7530261e-17 -6.8127268)
(344.16533 -2.2931577e-17 -4.2947428)
(343.11585 1.8976327e-17 -6.6694437)
(342.65186 1.5874e-17 -4.9375168)
(341.5644 -2.6542697e-17 -6.5935603)
(340.51853 4.4213413e-17 -5.7000833)
(339.07682 7.356026e-17 -6.7903957)
(337.36956 -1.5380766e-17 -6.5833452)
(335.29461 -8.9338995e-17 -7.36997)
(332.79478 0 -7.6105815)
(329.8498 -1.4103781e-16 -8.2962913)
(326.33044 2.3425848e-16 -8.8053777)
(322.18675 0 -9.4911583)
(317.347 1.609775e-16 -10.074296)
(311.86066 -2.817792e-16 -10.588077)
(305.83863 -1.9067642e-16 -10.84061)
(299.53191 -1.1027205e-17 -10.746473)
(293.25382 -1.8341844e-17 -10.213059)
(287.32559 -4.5387403e-16 -9.2623276)
(281.98964 -3.7478278e-16 -7.9872852)
(277.3805 5.7548773e-16 -6.5386716)
(273.52737 -4.8131739e-16 -5.0704823)
(270.38616 2.2561912e-17 -3.7099396)
(267.86932 5.5872922e-16 -2.5477068)
(265.88645 -8.5297109e-16 -1.6099346)
(264.36368 6.2587666e-16 -0.91615804)
(263.1931 1.5119658e-17 -0.4537963)
(262.29335 0 -0.18603133)
(261.60573 1.071278e-15 -0.066103066)
(261.1143 1.5780982e-15 -0.051401275)
(260.74912 2.4988049e-19 -0.12620727)
(260.39394 0 -0.292254)
(260.09653 0 -0.49238174)
(259.96413 8.9693652e-16 -0.64442473)
(259.9541 1.325393e-15 -0.72891328)
(260.03513 9.5041109e-16 -0.70968257)
(260.50567 2.0704009e-15 -0.56277374)
(260.85665 1.0337134e-15 -0.35194982)
(261.03662 -1.1759466e-17 -0.2268785)
(261.11879 -5.5760038e-16 -0.31060267)
(234.82133 -1.95513e-16 -4.3742853)
(275.95367 7.4571513e-17 -4.4904259)
(303.14234 3.589307e-18 -5.36429)
(325.7659 -6.0817071e-18 -5.6959922)
(340.77164 0 -7.0350812)
(347.8931 -8.5704676e-18 -5.8549037)
(344.63203 -5.8082467e-17 -7.9017236)
(346.94915 9.604475e-17 -5.3712073)
(344.89893 -4.0164977e-17 -8.3891598)
(345.8621 3.3452805e-17 -5.3940015)
(344.51203 -4.1808168e-17 -8.4381125)
(344.65511 2.3191727e-17 -5.8375841)
(343.56171 -5.8126528e-17 -8.298395)
(343.03728 1.6083742e-17 -6.5504939)
(341.88059 5.3730935e-17 -8.2645518)
(340.75161 6.7233861e-17 -7.4010045)
(339.23224 -1.6782634e-16 -8.5114723)
(337.45016 -1.5598846e-17 -8.3265739)
(335.31471 1.0333105e-16 -9.1136522)
(332.73366 1.0691934e-17 -9.3694162)
(329.66733 -1.431736e-16 -10.063585)
(325.9711 -1.1873646e-16 -10.590684)
(321.62833 -2.486257e-17 -11.265852)
(316.57745 -1.2216131e-16 -11.816998)
(310.88741 -2.8671447e-16 -12.254906)
(304.69786 0 -12.384716)
(298.28731 3.8666205e-16 -12.12007)
(291.9859 -3.1389926e-16 -11.385197)
(286.11349 0 -10.223822)
(280.89505 0 -8.7505802)
(276.43974 6.0308616e-16 -7.1295154)
(272.75275 0 -5.5198182)
(269.77148 0 -4.0477425)
(267.39624 1.128411e-15 -2.7996684)
(265.53197 -8.6000333e-16 -1.7952745)
(264.10563 -6.4934097e-16 -1.0505351)
(263.00895 -9.7473646e-16 -0.55066206)
(262.16234 1.4515858e-15 -0.25502591)
(261.51405 -2.1141339e-15 -0.11249102)
(261.05165 -2.3953553e-15 -0.082175413)
(260.69682 2.6007683e-19 -0.14872143)
(260.33016 0 -0.30744084)
(260.04863 0 -0.49892366)
(259.93371 0 -0.64198111)
(259.94417 0 -0.72287714)
(260.0412 0 -0.68738165)
(260.53579 -1.7952409e-19 -0.5375501)
(260.86795 -1.0046845e-15 -0.33664958)
(261.03753 0 -0.21786195)
(261.1158 -4.2917748e-18 -0.29850696)
(236.7848 -3.0956901e-18 -5.5025373)
(278.04219 0 -5.7844208)
(305.2894 0 -6.7943117)
(328.06005 1.0504457e-16 -7.2103409)
(341.86635 -7.2656505e-17 -8.6741297)
(348.4191 -6.0886768e-17 -7.3526671)
(345.01806 4.4066469e-17 -9.563066)
(347.35736 -4.8703939e-17 -6.8622785)
(345.26165 4.068246e-17 -10.041797)
(346.23027 1.6927503e-17 -6.9060466)
(344.8146 0 -10.092181)
(344.90862 1.7950634e-20 -7.4385453)
(343.79622 1.9637047e-17 -10.000422)
(343.21798 3.2752847e-17 -8.2342754)
(342.00975 -8.1684698e-17 -9.9782785)
(340.8264 -4.5417512e-17 -9.1263667)
(339.26334 7.5659241e-17 -10.243006)
(337.42594 6.3029675e-17 -10.076412)
(335.20964 -1.0487808e-16 -10.863412)
(332.50902 -1.0931456e-16 -11.153972)
(329.28081 3.0836861e-16 -11.86089)
(325.40244 1.2077098e-16 -12.399496)
(320.85565 0 -13.057889)
(315.59502 2.0926236e-17 -13.565517)
(309.70957 -3.5481303e-17 -13.912837)
(303.36945 -4.3757039e-16 -13.903322)
(296.88014 -7.3678079e-16 -13.452996)
(290.58551 2.985376e-16 -12.506033)
(284.79903 0 -11.129506)
(279.72451 -7.7179357e-16 -9.4592831)
(275.44402 -6.0801899e-16 -7.6710668)
(271.93874 9.550906e-16 -5.9272912)
(269.12842 0 -4.3517245)
(266.90232 -1.1710544e-15 -3.0253649)
(265.16196 2.5873537e-17 -1.9607934)
(263.83604 0 -1.1703854)
(262.81623 9.4777659e-16 -0.63731181)
(262.02493 -1.4329767e-15 -0.31708219)
(261.41775 1.0760446e-15 -0.15214429)
(260.9858 1.5819121e-15 -0.11008571)
(260.64208 -1.1935622e-15 -0.17043889)
(260.26811 1.7141248e-15 -0.32209727)
(260.00293 1.2267875e-15 -0.50410977)
(259.90353 -2.7814218e-17 -0.63788845)
(259.92987 2.0157629e-17 -0.71392769)
(260.0613 1.4611591e-17 -0.66605537)
(260.56359 -1.3703335e-15 -0.51211049)
(260.87848 0 -0.32201455)
(261.03832 7.2732362e-16 -0.20913386)
(261.11295 -5.3801031e-16 -0.28641223)
(238.57261 2.0421066e-16 -6.6688861)
(279.94052 1.4477152e-16 -7.1192341)
(307.23149 -1.1840753e-16 -8.2710415)
(330.19328 9.4037372e-17 -8.7685175)
(342.68466 -1.6851255e-16 -10.342577)
(348.77918 -7.1059269e-20 -8.8665606)
(345.22273 1.3397597e-16 -11.24615)
(347.59222 -4.9257676e-17 -8.3792454)
(345.43359 -2.0619898e-17 -11.74348)
(346.42159 0 -8.4869059)
(344.95459 0 -11.820079)
(345.04039 2.3837987e-17 -9.0915988)
(343.87633 -1.9846492e-17 -11.721755)
(343.26718 1.6611814e-17 -9.9332301)
(342.0293 2.7699221e-17 -11.697739)
(340.80482 -2.2938601e-17 -10.857266)
(339.18867 0 -11.971988)
(337.26904 5.988295e-20 -11.842209)
(334.93689 7.9739154e-17 -12.645721)
(332.09071 1.1047025e-16 -12.967957)
(328.69578 -1.2857276e-16 -13.682864)
(324.62736 1.0789151e-16 -14.227814)
(319.87495 1.7797747e-16 -14.860026)
(314.40723 3.3696217e-16 -15.311607)
(308.33617 2.9440536e-16 -15.552537)
(301.86421 -1.706204e-17 -15.386574)
(295.32283 3.8444039e-16 -14.735875)
(289.06559 0 -13.567555)
(283.39469 -3.078414e-17 -11.973216)
(278.48925 7.7781913e-16 -10.109038)
(274.40286 1.9101706e-17 -8.1604262)
(271.09308 2.714818e-18 -6.291038)
(268.46306 7.4692139e-16 -4.6206947)
(266.39219 -1.79315e-17 -3.2240012)
(264.77988 8.8374734e-16 -2.1059107)
(263.55747 0 -1.2752616)
(262.61677 -3.0744815e-17 -0.71338302)
(261.88259 -5.4044047e-20 -0.37218428)
(261.31778 1.682785e-17 -0.19249816)
(260.91675 -1.5834966e-15 -0.13482027)
(260.5848 -1.1571637e-15 -0.19094692)
(260.20887 -1.684669e-15 -0.33613745)
(259.96123 -1.222976e-15 -0.5082077)
(259.87564 -2.7691081e-17 -0.63285513)
(259.91234 -1.2624548e-15 -0.70290388)
(260.09441 0 -0.64603149)
(260.58976 -1.345363e-15 -0.48707198)
(260.88856 0 -0.30801056)
(261.03908 7.1510933e-16 -0.20068606)
(261.11033 -5.1832272e-16 -0.27432322)
(240.20954 -1.9759773e-16 -7.8633822)
(281.68338 2.8930744e-16 -8.4737884)
(308.99991 -1.2029697e-16 -9.7756795)
(332.17961 6.3570061e-18 -10.3557)
(343.25962 -9.6179234e-17 -12.036053)
(349.00046 7.1423391e-17 -10.413097)
(345.35417 1.5079361e-17 -12.987731)
(347.71298 -1.2489506e-17 -9.9569691)
(345.52546 2.0904325e-17 -13.50484)
(346.48581 -1.737407e-17 -10.111236)
(345.01132 -2.9058412e-17 -13.568917)
(345.08769 -4.7283963e-20 -10.753405)
(343.86889 -4.0306335e-17 -13.4392)
(343.23166 -6.725069e-17 -11.634289)
(341.95414 2.7925534e-17 -13.412434)
(340.6672 9.3396069e-17 -12.600578)
(338.96988 1.9523607e-17 -13.730653)
(336.93958 -8.0877065e-17 -13.641254)
(334.4809 -1.0782485e-16 -14.454788)
(331.48391 -2.0259877e-16 -14.80773)
(327.9146 1.8537884e-17 -15.525601)
(323.65304 -2.4808891e-16 -16.069251)
(318.69367 -1.7980938e-16 -16.665426)
(313.02234 -3.6208543e-16 -17.047135)
(306.77705 0 -17.164857)
(300.19385 -2.8991432e-18 -16.825)
(293.62856 0 -15.959944)
(287.43971 0 -14.562569)
(281.91336 0 -12.749672)
(277.20063 0 -10.696337)
(273.3258 0 -8.5954364)
(270.22347 -9.7127443e-16 -6.6098016)
(267.78139 -1.4811872e-15 -4.8539374)
(265.8704 -1.7956373e-17 -3.3951423)
(264.38913 8.7651908e-16 -2.2303127)
(263.27243 0 -1.3649152)
(262.4124 3.0855917e-17 -0.77868776)
(261.73661 -2.2846347e-17 -0.41930234)
(261.21517 0 -0.22387774)
(260.84456 -4.4991251e-19 -0.15629118)
(260.52428 1.1559935e-15 -0.20970131)
(260.1522 -2.6288987e-17 -0.34925823)
(259.92413 1.9034865e-17 -0.51128688)
(259.85109 1.7637125e-15 -0.6272891)
(259.89529 1.2741968e-15 -0.68913085)
(260.1356 0 -0.62569827)
(260.6154 1.3312187e-15 -0.46298766)
(260.89845 0 -0.29463196)
(261.03983 -2.8015155e-15 -0.19252215)
(261.10791 2.0535974e-15 -0.26224448)
(241.73153 -2.0684939e-16 -9.0941892)
(283.31107 1.2234878e-21 -9.8642543)
(310.63497 -1.1461126e-16 -11.331887)
(334.0339 2.0610819e-16 -11.996014)
(343.632 8.2549256e-20 -13.781115)
(349.11118 9.1339583e-18 -12.006481)
(345.3873 -7.6351918e-17 -14.773571)
(347.76473 0 -11.562641)
(345.53424 0 -15.282212)
(346.51108 1.7607064e-17 -11.745845)
(344.99264 5.8846645e-17 -15.313941)
(345.06874 -7.3425231e-17 -12.414549)
(343.77132 8.1691303e-17 -15.15299)
(343.08482 0 -13.352229)
(341.74617 5.6797944e-17 -15.158771)
(340.37436 -1.6558109e-16 -14.381668)
(338.58385 -1.963723e-17 -15.517758)
(336.43902 1.4814492e-16 -15.468642)
(333.84681 -1.2327546e-16 -16.289758)
(330.6931 1.8209934e-16 -16.669386)
(326.94534 -1.5210914e-16 -17.384207)
(322.48687 1.5922481e-17 -17.918546)
(317.3196 -1.2952097e-17 -18.467469)
(311.44909 -3.4842262e-16 -18.764226)
(305.04256 3.0596517e-16 -18.740868)
(298.37084 9.2891256e-16 -18.209542)
(291.81117 -3.866452e-16 -17.117083)
(285.72193 -6.2669781e-16 -15.484712)
(280.36808 -5.0331011e-16 -13.454473)
(275.87003 0 -11.218488)
(272.22229 0 -8.9746386)
(269.33743 -3.0780693e-17 -6.8828882)
(267.08924 1.5642813e-15 -5.0511722)
(265.34136 -1.1983194e-15 -3.5386844)
(263.99302 -8.941404e-16 -2.333932)
(262.98338 1.3467791e-15 -1.4392741)
(262.20494 3.0955918e-17 -0.83314409)
(261.58823 -1.4906669e-15 -0.45895873)
(261.11062 3.3803967e-17 -0.25065596)
(260.76934 -4.3142507e-19 -0.17433738)
(260.45939 -1.8030069e-17 -0.226099)
(260.09731 2.6227353e-17 -0.3609865)
(259.89136 -1.8966886e-17 -0.5133084)
(259.83119 -3.4819991e-15 -0.62142832)
(259.88227 -1.9774819e-17 -0.67304991)
(260.18157 1.8249789e-15 -0.60473625)
(260.64115 0 -0.44017256)
(260.90823 -1.4875556e-17 -0.28191361)
(261.04061 2.7760695e-15 -0.18465067)
(261.10568 -2.0184142e-15 -0.25018173)
(243.16992 -6.5562807e-18 -10.369175)
(284.84975 9.4657996e-18 -11.298108)
(312.16968 -1.3192905e-16 -12.943349)
(335.73955 -6.6089174e-18 -13.676058)
(343.83438 -8.7621167e-20 -15.555926)
(349.14153 1.4678302e-16 -13.611853)
(345.33363 -7.7328035e-17 -16.563847)
(347.74968 2.5640368e-17 -13.1624)
(345.43686 -2.145725e-17 -17.049655)
(346.37363 -3.5712585e-17 -13.377622)
(344.841 -3.0699419e-20 -17.067776)
(344.86131 4.9572347e-17 -14.110967)
(343.54122 -5.8563697e-20 -16.909966)
(342.78869 3.4595667e-17 -15.113687)
(341.38219 -1.1506277e-16 -16.934173)
(339.92348 1.1979091e-16 -16.193441)
(338.03609 0 -17.331804)
(335.77145 3.8957288e-19 -17.32228)
(333.04097 8.2980346e-17 -18.14647)
(329.7262 2.2963852e-17 -18.548892)
(325.79502 -7.3207638e-19 -19.254297)
(321.13624 0 -19.770319)
(315.76023 2.1359165e-16 -20.259734)
(309.69608 -2.3739864e-18 -20.455045)
(303.14337 -2.9044935e-16 -20.271777)
(296.40804 -4.7741807e-16 -19.531503)
(289.88487 -2.7335335e-17 -18.199877)
(283.92643 3.5623329e-17 -16.328507)
(278.77185 4.9140785e-16 -14.084145)
(274.50866 -8.1000883e-16 -11.673638)
(271.10151 -6.3700768e-16 -9.2972769)
(268.44223 3.1049532e-17 -7.1101638)
(266.39217 7.430976e-16 -5.2125479)
(264.80928 1.1675396e-15 -3.6548469)
(263.59467 0 -2.4169392)
(262.69266 2.2101166e-17 -1.4984456)
(261.99614 -1.5487308e-17 -0.87682099)
(261.43872 2.9631493e-15 -0.49107263)
(261.0048 -1.688825e-17 -0.27212985)
(260.69128 3.1666515e-15 -0.18898124)
(260.38909 0 -0.23954676)
(260.0435 -2.6156561e-17 -0.3707761)
(259.86195 2.4387392e-15 -0.51409429)
(259.8164 1.7724973e-15 -0.61536908)
(259.87536 -1.2765663e-15 -0.6550354)
(260.22878 -3.627417e-19 -0.58286395)
(260.66662 -2.0338811e-17 -0.41868473)
(260.9178 1.0545889e-20 -0.26986217)
(261.04141 -1.3487934e-15 -0.17707408)
(261.10363 2.6188875e-21 -0.2381418)
(244.51436 2.127795e-16 -11.675303)
(286.28246 7.4953638e-20 -12.747835)
(313.59496 -1.3391612e-16 -14.58186)
(337.21671 6.6099404e-18 -15.366033)
(343.8584 -8.9243496e-17 -17.347757)
(349.05837 6.5032442e-17 -15.225973)
(345.14091 1.5668696e-17 -18.369984)
(347.50998 -5.1945424e-17 -14.782477)
(345.18549 2.1721627e-17 -18.852515)
(346.14339 0 -15.047096)
(344.53176 0 -18.855348)
(344.498 -5.0278435e-17 -15.848798)
(343.16036 0 -18.699646)
(342.34397 1.0515298e-16 -16.909139)
(340.86933 1.8793828e-19 -18.735249)
(339.32085 1.9250498e-19 -18.033425)
(337.33308 -2.0194458e-17 -19.169295)
(334.94498 1.7481799e-17 -19.198764)
(332.07117 -1.400382e-17 -20.022215)
(328.59026 0 -20.442703)
(324.47074 1.560923e-16 -21.131773)
(319.60773 1.6437218e-17 -21.619568)
(314.02266 -4.460669e-16 -22.035868)
(307.77184 -2.6077995e-18 -22.11175)
(301.09046 0 -21.748904)
(294.31865 -1.5364961e-17 -20.782575)
(287.86408 7.8129993e-16 -19.201585)
(282.06737 6.6033079e-16 -17.089325)
(277.1375 -1.0651585e-15 -14.636077)
(273.12742 2.1654495e-17 -12.060708)
(269.97231 6.6118518e-16 -9.5632392)
(267.54475 -1.5544052e-17 -7.292005)
(265.69542 -2.0660815e-17 -5.338601)
(264.27811 -1.1583375e-15 -3.7441385)
(263.19706 0 -2.4797208)
(262.40249 -2.6715767e-15 -1.5426872)
(261.78767 0 -0.90989956)