/*--------------------------------*- C++ -*----------------------------------*\
  =========                 |
  \\      /  F ield         | OpenFOAM: The Open Source CFD Toolbox
   \\    /   O peration     | Website:  https://openfoam.org
    \\  /    A nd           | Version:  8
     \\/     M anipulation  |
\*---------------------------------------------------------------------------*/
FoamFile
{
    version     2.0;
    format      ascii;
    class       volVectorField;
    location    "0.0900078";
    object      wallShearStress;
}
// * * * * * * * * * * * * * * * * * * * * * * * * * * * * * * * * * * * * * //

dimensions      [1 -1 -2 0 0 0 0];

internalField   uniform (0 0 0);

boundaryField
{
    aerofoil
    {
        type            calculated;
        value           nonuniform List<vector> 
300
(
(-128.88401 1.0694115e-16 -4.2789983)
(-132.90067 1.0963571e-16 -3.8949894)
(-136.13846 -1.4332896e-20 -3.4740554)
(-139.37308 -5.7322002e-17 -3.0094179)
(-142.57011 -5.9487545e-17 -2.4335107)
(-145.71428 5.8935451e-17 -1.8309889)
(-148.7779 1.9693488e-18 -1.1875216)
(-151.71335 1.9680521e-18 -0.49716733)
(-154.52864 -1.9973526e-18 0.22709511)
(-157.20004 8.7870554e-34 0.90699637)
(-159.7149 1.330747e-16 1.6439389)
(-162.07008 2.0285196e-18 2.4180813)
(-164.2898 -1.4057398e-16 3.2281932)
(-166.38524 1.3694552e-16 4.0691016)
(-168.38745 1.4402257e-16 4.9467693)
(-170.32091 4.4074945e-18 5.8660088)
(-172.19781 -1.5001395e-16 6.8191686)
(-173.9575 -1.5269039e-16 7.8060023)
(-175.56774 1.55896e-16 8.8216311)
(-177.05082 -1.5869465e-16 9.8725558)
(-178.43117 -6.5209811e-16 10.963637)
(-179.72808 3.3499983e-16 12.091429)
(-180.96232 1.0786262e-19 13.258496)
(-182.13749 -3.4275196e-16 14.463198)
(-183.29076 3.4951518e-16 15.717402)
(-184.42182 3.5633298e-16 17.017485)
(-185.54938 -3.5171358e-16 18.367481)
(-186.70153 3.1040339e-20 19.77721)
(-187.85708 3.6548901e-16 21.247248)
(-189.0282 3.8415944e-16 22.80123)
(-190.19005 -4.0377025e-16 24.428238)
(-191.33613 4.2345426e-16 26.126958)
(-192.46767 -1.2650017e-17 27.909669)
(-193.57394 -4.1315301e-16 29.779611)
(-194.63384 -4.2068206e-16 31.744951)
(-195.65679 1.0976016e-18 33.806229)
(-196.62749 0 35.961669)
(-197.5742 -8.8819654e-16 38.2227)
(-198.51355 4.361764e-16 40.591215)
(-199.45695 -4.5826332e-16 43.063843)
(-200.34251 4.8082717e-16 45.636797)
(-201.12922 5.7573108e-20 48.308255)
(-201.76564 -5.0358278e-16 51.078933)
(-202.22308 4.9158139e-16 53.967655)
(-202.45524 5.1452685e-16 56.984443)
(-202.4213 5.0942699e-16 60.095855)
(-201.96009 -2.2435412e-17 63.307017)
(-201.11177 2.9362929e-17 66.646368)
(-199.84654 5.0951938e-16 70.111752)
(-198.11973 -5.3909475e-16 73.701449)
(-195.90942 -1.8245703e-17 77.430629)
(-193.1822 -1.0942088e-15 81.30248)
(-189.89207 5.0233644e-18 85.315048)
(-186.02073 5.859838e-16 89.479714)
(-181.55068 -6.4416971e-18 93.794993)
(-176.48453 -6.0990644e-16 98.24919)
(-170.87849 2.0703248e-17 102.80814)
(-164.88934 1.0781274e-17 107.35051)
(-158.74827 -3.9158636e-17 111.71686)
(-152.49236 -2.721167e-18 115.84344)
(-145.7934 -6.1220866e-16 119.5862)
(-138.32153 6.5682954e-16 122.71197)
(-129.86029 -2.9120668e-19 124.91153)
(-120.35117 6.8267384e-16 126.07155)
(-109.74269 -1.6807684e-19 125.96034)
(-97.990413 1.4002873e-15 124.01449)
(-84.954841 1.9259299e-34 119.8549)
(-71.015437 -1.1371575e-17 113.07632)
(-56.54703 9.9143537e-18 102.95709)
(-42.255665 3.6344028e-16 89.31646)
(-28.831345 -1.2437458e-18 72.219592)
(-16.76429 1.4047029e-18 52.478172)
(-8.5490093 -1.6768682e-16 31.430699)
(-3.895032 -1.4795077e-16 13.847371)
(-1.6135554 -2.810649e-17 3.2811518)
(-0.093270643 5.4238726e-38 -0.33307736)
(-1.0679447 0 -0.20131683)
(-1.3080276 2.4616411e-16 -0.24389937)
(-1.9296943 2.7128096e-16 -0.35134467)
(-2.5880843 -5.8448326e-16 -0.46311065)
(-3.392761 3.1455678e-16 -0.5986259)
(-4.2696735 2.9351669e-20 -0.74454959)
(-5.2437214 1.0532199e-26 -0.90483197)
(-6.3084992 1.8367099e-40 -1.074234)
(-7.471518 -4.7447687e-21 -1.2566872)
(-8.7009345 -2.4054598e-20 -1.4492087)
(-9.9797717 4.2966981e-16 -1.6468582)
(-11.294078 -4.2414663e-22 -1.8468044)
(-12.638369 -5.0195355e-20 -2.0480992)
(-14.009981 4.7456075e-16 -2.2498182)
(-15.406414 -2.2369206e-26 -2.4519524)
(-16.825612 5.5950615e-20 -2.6537178)
(-18.262483 6.050671e-20 -2.8543545)
(-19.711012 6.4791479e-20 -3.0531229)
(-21.165012 -5.3361969e-16 -3.2490358)
(-22.616884 2.5965994e-22 -3.4410962)
(-24.068501 -5.5277773e-16 -3.6291282)
(-25.526652 -5.616787e-16 -3.814312)
(-26.998877 5.7029166e-16 -3.9973954)
(-28.480049 1.1569464e-15 -4.1780959)
(-29.970485 1.1726365e-15 -4.3558491)
(-31.467544 -8.340903e-26 -4.5308181)
(-32.969835 8.9372144e-26 -4.7021144)
(-34.469598 6.0819132e-16 -4.869233)
(-35.968302 -2.8423744e-21 -5.0317401)
(-37.466608 -6.2142905e-16 -5.189881)
(-38.978172 6.2753732e-16 -5.3458329)
(-40.512165 -1.2672933e-15 -5.4991078)
(-42.060724 6.3964453e-16 -5.6496511)
(-43.622696 1.2675997e-19 -5.7969927)
(-45.196329 -6.5101018e-16 -5.9409791)
(-46.779124 -1.2496926e-21 -6.0805908)
(-48.366591 1.2646531e-21 -6.2154476)
(-49.960636 1.2494212e-25 -6.3451558)
(-51.569753 6.6519269e-20 -6.4711566)
(-53.205848 7.4126794e-20 -6.5933498)
(-54.867567 6.8157676e-16 -6.7121137)
(-56.547847 -6.8640168e-16 -6.8261221)
(-58.248067 6.9097218e-16 -6.9353924)
(-59.970566 1.2386485e-19 -7.039033)
(-61.704749 -7.0001671e-16 -7.1368861)
(-63.448366 -4.1687685e-20 -7.2273456)
(-65.204734 -8.6986951e-20 -7.3105798)
(-66.983314 -7.1259838e-16 -7.3867471)
(-68.80061 -4.9472002e-20 -7.4575843)
(-70.663087 -7.20422e-16 -7.5224363)
(-72.559153 -4.1690609e-20 -7.58)
(-74.483263 -5.1760934e-20 -7.6295255)
(-76.43293 9.6082671e-20 -7.6695446)
(-78.393551 -7.3557753e-16 -7.6980715)
(-80.370058 -1.478159e-15 -7.7152363)
(-82.38854 -5.8257596e-21 -7.7215414)
(-84.457384 5.6763651e-21 -7.7169962)
(-86.579997 -3.7462295e-16 -7.7010069)
(-88.743407 3.7633307e-16 -7.67265)
(-90.94212 3.7792988e-16 -7.6281849)
(-93.163184 7.5928123e-16 -7.5680249)
(-95.409712 -3.8132376e-16 -7.4892128)
(-97.671268 3.515952e-20 -7.3913116)
(-99.939338 -3.8478251e-16 -7.2709074)
(-102.20682 -3.86898e-16 -7.1279035)
(-104.49707 -3.6164298e-20 -6.9638784)
(-106.85757 -6.9702343e-20 -6.7792361)
(-109.31743 -1.1299834e-20 -6.5715493)
(-111.89049 -2.4946418e-20 -6.3389752)
(-114.58407 -2.5326753e-33 -6.0778368)
(-117.4216 1.8776294e-20 -5.7895682)
(-120.42698 3.2560228e-20 -5.4677442)
(-123.55832 1.9826543e-16 -5.1149176)
(-125.89389 1.9925053e-16 -4.6760026)
(-152.02747 1.9985418e-16 -6.2113386)
(-152.64489 -5.3810776e-23 -6.7962637)
(-153.70681 -3.3126134e-20 -7.4511952)
(-154.29574 -2.2870418e-34 -8.1046849)
(-154.81989 2.1707438e-16 -8.7880968)
(-155.235 -2.1969999e-16 -9.4700431)
(-155.58073 2.2278211e-16 -10.173743)
(-155.78371 1.8473344e-18 -10.870768)
(-155.96238 4.7194298e-16 -11.585535)
(-156.08358 2.4092592e-16 -12.305523)
(-156.20037 1.7224924e-19 -13.043397)
(-156.29323 2.5109252e-16 -13.788745)
(-156.39108 -2.3156933e-19 -14.552401)
(-156.47111 6.7913488e-20 -15.323324)
(-156.56042 -6.5101746e-20 -16.111957)
(-156.65151 -6.6240638e-20 -16.918392)
(-156.73228 -2.7762114e-16 -17.738071)
(-156.81631 -6.2203528e-20 -18.576412)
(-156.8983 -2.8428691e-16 -19.430771)
(-156.99257 -2.9918048e-16 -20.306338)
(-157.08987 -4.6284863e-18 -21.202097)
(-157.16895 -3.0172302e-16 -22.113656)
(-157.24245 -2.9037015e-19 -23.047059)
(-157.31783 4.9866363e-18 -24.001541)
(-157.41737 2.6976404e-20 -24.987749)
(-157.50209 2.9279674e-20 -25.994068)
(-157.58047 -5.2508738e-18 -27.026372)
(-157.64997 3.3266691e-16 -28.08803)
(-157.69521 -3.3919214e-16 -29.174038)
(-157.71059 -1.1178481e-17 -30.288253)
(-157.68461 3.634437e-16 -31.432778)
(-157.61504 -7.4235316e-20 -32.608609)
(-157.50988 3.892948e-16 -33.820023)
(-157.39221 -3.9665932e-16 -35.076383)
(-157.28524 8.0874643e-16 -36.386972)
(-157.19079 -1.321119e-17 -37.753245)
(-157.11118 -2.3720548e-19 -39.181968)
(-157.06309 9.2534915e-35 -40.684561)
(-157.04275 4.1787971e-19 -42.266773)
(-157.06714 -1.4045256e-17 -43.942343)
(-157.09355 -4.2563828e-16 -45.711249)
(-157.09581 -4.3449316e-16 -47.568956)
(-157.02993 4.4596662e-16 -49.512956)
(-156.87839 -4.5198256e-16 -51.557207)
(-156.59189 -1.4821776e-17 -53.703534)
(-156.21864 -7.7037198e-34 -55.984267)
(-155.69944 4.9710222e-16 -58.392538)
(-155.06989 -1.584112e-17 -60.945871)
(-154.32335 5.3434226e-16 -63.632717)
(-153.34867 -5.4110292e-16 -66.434067)
(-152.02832 1.6580762e-17 -69.349464)
(-150.27596 -5.4265621e-16 -72.380058)
(-147.97307 -5.5815479e-16 -75.508544)
(-145.06686 1.1130746e-15 -78.795812)
(-141.51715 6.467439e-18 -82.282934)
(-137.31885 5.6286538e-16 -86.037097)
(-132.53782 6.1067974e-16 -90.174892)
(-127.42193 1.2161034e-15 -94.757058)
(-122.33873 2.6787431e-19 -99.403475)
(-118.23678 6.354112e-16 -104.16332)
(-114.49257 3.0910006e-19 -108.78279)
(-110.44553 -1.2143374e-17 -112.99142)
(-105.38795 6.6946451e-16 -116.43331)
(-98.996358 6.8199569e-16 -118.7073)
(-91.22214 1.6666712e-19 -119.50113)
(-81.863904 1.1670048e-17 -118.28116)
(-70.99751 7.052989e-16 -114.50635)
(-59.018682 -3.6527012e-19 -107.77556)
(-46.467903 1.1285456e-18 -97.662134)
(-34.052 1.0810696e-17 -83.809552)
(-22.450018 3.6065464e-16 -66.500997)
(-12.241873 -3.5100439e-16 -46.428334)
(-6.13268 -1.6056441e-16 -25.022396)
(-2.7452163 6.9128622e-17 -9.9413248)
(-1.1238184 1.0651379e-17 -1.1820958)
(-143.65883 5.2000108e-33 17.210548)
(-173.27861 -1.2043887e-15 18.306123)
(-176.2217 1.1999625e-15 18.294915)
(-177.25402 -0 18.094952)
(-177.33813 -4.3438452e-26 17.807741)
(-177.13328 8.5721416e-19 17.493546)
(-176.50212 -1.1830521e-15 17.149494)
(-175.67589 1.1757925e-15 16.795305)
(-174.68722 -0 16.432878)
(-173.57765 -8.3995376e-19 16.069311)
(-172.37629 9.4022902e-19 15.704733)
(-171.09739 -8.2408262e-19 15.339728)
(-169.75579 1.4932372e-25 14.976093)
(-168.37275 1.1342012e-15 14.613728)
(-166.9582 2.695224e-22 14.254449)
(-165.51546 -1.1220752e-15 13.900645)
(-164.05297 1.1156217e-15 13.552257)
(-162.56681 -0 13.208256)
(-161.03728 2.2060296e-15 12.867183)
(-159.5336 -1.0963441e-15 12.532269)
(-158.0489 -8.06347e-26 12.205375)
(-156.55741 -5.414525e-16 11.884136)
(-155.08331 5.1402366e-22 11.570227)
(-153.67976 1.0684813e-15 11.262365)
(-152.31975 -5.3126247e-16 10.962385)
(-151.0062 -2.0139701e-21 10.66815)
(-149.74661 5.2393705e-16 10.382481)
(-148.54681 1.8322164e-26 10.102253)
(-147.39087 4.643992e-21 9.8284794)
(-146.27052 5.8000243e-19 9.558185)
(-145.17395 -3.8708865e-20 9.2912662)
(-144.1053 -5.0660555e-16 9.0299182)
(-143.07399 1.0064633e-15 8.7696672)
(-142.07034 5.3708892e-19 8.5118576)
(-141.09397 4.9675427e-16 8.2563217)
(-140.14095 5.2012234e-19 8.0031835)
(-139.21339 -4.9043278e-16 7.7511133)
(-138.30916 -7.4915338e-26 7.5001435)
(-137.42725 1.8447156e-21 7.2491525)
(-136.56606 -4.8099415e-16 6.9995346)
(-135.72858 -4.7855055e-16 6.749751)
(-134.91422 -4.8084448e-20 6.4995702)
(-134.12435 4.7273862e-16 6.2486542)
(-133.36464 -1.796918e-21 5.9980846)
(-132.63352 2.7903363e-19 5.7455109)
(-131.92225 4.6482927e-16 5.491822)
(-131.21123 4.6205331e-16 5.235336)
(-130.48677 -4.5980033e-16 4.97521)
(-129.72824 -4.771264e-20 4.7117707)
(-128.94952 4.5454279e-16 4.4456512)
(-128.15559 -4.5221962e-16 4.1759463)
(-127.38864 1.4637246e-19 3.9031359)
(-126.70582 2.2350988e-16 3.6299554)
(-126.1932 6.5879323e-20 3.3556748)
(-125.92794 2.0668159e-19 3.0772116)
(-125.90397 2.4382865e-21 2.7952667)
(-126.02251 -4.3778923e-16 2.5097377)
(-126.0177 1.3664591e-25 2.2125681)
(-125.4211 1.9373074e-19 1.9115112)
(-124.11254 2.1588087e-16 1.5943007)
(-122.19822 1.0730952e-16 1.2691965)
(-119.45778 -6.5559557e-21 0.94560804)
(-115.5338 1.0654614e-16 0.63644902)
(-110.69423 8.7424885e-20 0.3428998)
(-105.56438 5.2412379e-17 0.044412338)
(-100.99599 -1.2103335e-20 -0.2602911)
(-97.378121 7.6867873e-26 -0.5738382)
(-95.926639 1.5786403e-18 -0.93884202)
(-98.743331 2.4986097e-17 -1.4538441)
(-105.6484 5.9001782e-21 -2.0393142)
(-115.90882 -6.0861547e-21 -2.6984082)
(-126.72046 1.8783384e-20 -3.3918841)
(-136.18014 3.0038211e-20 -4.0924122)
(-143.23842 -9.4377485e-17 -4.8087205)
(-148.83594 -1.8695642e-16 -5.5147594)
)
;
    }
    inlet
    {
        type            calculated;
        value           uniform (0 0 0);
    }
    outlet
    {
        type            calculated;
        value           uniform (0 0 0);
    }
    back
    {
        type            empty;
    }
    front
    {
        type            empty;
    }
}


// ************************************************************************* //
