/*--------------------------------*- C++ -*----------------------------------*\
  =========                 |
  \\      /  F ield         | OpenFOAM: The Open Source CFD Toolbox
   \\    /   O peration     | Website:  https://openfoam.org
    \\  /    A nd           | Version:  8
     \\/     M anipulation  |
\*---------------------------------------------------------------------------*/
FoamFile
{
    version     2.0;
    format      ascii;
    class       volScalarField;
    location    "0.0900078";
    object      yPlus;
}
// * * * * * * * * * * * * * * * * * * * * * * * * * * * * * * * * * * * * * //

dimensions      [0 0 0 0 0 0 0];

internalField   uniform 0;

boundaryField
{
    aerofoil
    {
        type            calculated;
        value           nonuniform List<scalar> 
300
(
125.73675
126.10317
126.36393
126.63583
126.91803
127.18711
127.47486
127.73224
127.98488
128.2132
128.43673
128.64031
128.83962
129.02788
129.21298
129.40224
129.61078
129.82225
130.01632
130.19881
130.37867
130.56179
130.76125
130.96752
131.20568
131.47109
131.76251
132.10239
132.47042
132.88333
133.32406
133.79231
134.28607
134.79956
135.32974
135.88658
136.45752
137.05282
137.67953
138.34861
139.03457
139.72808
140.40151
141.06
141.67531
142.26208
142.74598
143.15833
143.50326
143.76706
143.95647
144.08284
144.14292
144.15258
144.13335
144.11168
144.11779
144.25609
144.5696
145.13903
145.84263
146.55636
147.12292
147.48769
147.55859
147.08437
145.69685
143.1073
138.5215
131.19771
120.01123
103.7924
81.28721
54.361674
26.722964
6.548163
13.335908
14.720002
17.859298
20.653151
23.614119
26.452007
29.269507
32.053926
34.826162
37.521344
40.117082
42.606604
44.994658
47.293585
49.509492
51.652245
53.720575
55.715757
57.635942
59.480065
61.25595
62.977632
64.658706
66.296623
67.894313
69.451864
70.970813
72.445563
73.880065
75.277117
76.649828
78.010639
79.351027
80.671824
81.971138
83.24904
84.501808
85.732659
86.946992
88.156739
89.359476
90.550396
91.729234
92.900729
94.055305
95.192621
96.314059
97.427239
98.540818
99.661407
100.77973
101.89175
102.99594
104.08464
105.15629
106.23067
107.30761
108.3922
109.47367
110.55285
111.61721
112.67159
113.70441
114.71385
115.69123
116.65303
117.62261
118.61543
119.6303
120.67089
121.73639
122.86169
124.00143
125.06296
130.11462
129.5189
129.02644
128.38608
127.82861
127.2608
126.7795
126.25218
125.78795
125.32719
124.9222
124.53438
124.19348
123.86816
123.58438
123.33737
123.11344
122.92058
122.75079
122.61285
122.50539
122.41448
122.34749
122.29648
122.28457
122.28708
122.30714
122.34625
122.39508
122.453
122.5162
122.58292
122.65465
122.73873
122.85102
122.99388
123.16452
123.37628
123.62569
123.9225
124.25311
124.61334
124.98042
125.36054
125.71743
126.09747
126.46733
126.85543
127.26851
127.66191
127.99705
128.26418
128.42711
128.50194
128.50226
128.4657
128.47091
128.72937
129.28918
130.59159
132.37
134.3819
136.31683
137.90546
139.04763
139.46407
138.77428
136.58904
132.33926
125.05676
113.67912
96.668035
72.072653
45.896488
16.718911
165.74247
164.1947
164.74906
164.76565
164.30917
163.8098
163.14503
162.42441
161.65538
160.85097
160.02287
159.17586
158.31146
157.43764
156.56084
155.67884
154.79571
153.90985
153.00672
152.12106
151.2492
150.38085
149.5183
148.69151
147.8869
147.1075
146.35569
145.63624
144.93601
144.25253
143.57888
142.91329
142.26477
141.6264
141.00043
140.38312
139.77663
139.17993
138.59307
138.01351
137.44435
136.88481
136.33368
135.79446
135.26705
134.75068
134.23366
133.71645
133.18157
132.64372
132.09115
131.54462
131.02162
130.55124
130.18185
129.91237
129.723
129.56913
129.20016
128.53167
127.61067
126.4171
124.62257
122.31483
119.61548
116.969
114.67893
113.07558
113.68473
115.70336
119.29754
122.87518
125.88135
128.13377
129.51263
)
;
    }
    inlet
    {
        type            calculated;
        value           uniform 0;
    }
    outlet
    {
        type            calculated;
        value           uniform 0;
    }
    back
    {
        type            empty;
    }
    front
    {
        type            empty;
    }
}


// ************************************************************************* //
