/*--------------------------------*- C++ -*----------------------------------*\
  =========                 |
  \\      /  F ield         | OpenFOAM: The Open Source CFD Toolbox
   \\    /   O peration     | Website:  https://openfoam.org
    \\  /    A nd           | Version:  8
     \\/     M anipulation  |
\*---------------------------------------------------------------------------*/
FoamFile
{
    version     2.0;
    format      ascii;
    class       volScalarField;
    location    "0.0199971";
    object      alphat;
}
// * * * * * * * * * * * * * * * * * * * * * * * * * * * * * * * * * * * * * //

dimensions      [1 -1 -1 0 0 0 0];

internalField   nonuniform List<scalar> 
20000
(
0.0010308969
0.0026098539
0.003547547
0.0039499138
0.0036917929
0.0025139226
0.00054999774
9.5897528e-08
3.6638861e-09
3.6454682e-09
3.5436991e-09
3.580149e-09
3.5413543e-09
3.5779437e-09
3.5885855e-09
3.6318853e-09
3.6702763e-09
3.7340427e-09
3.8068743e-09
3.9055945e-09
4.0236337e-09
4.1736424e-09
4.3551248e-09
4.577002e-09
4.8388636e-09
5.1420216e-09
5.4793689e-09
5.8401051e-09
6.2053648e-09
6.5544449e-09
6.87454e-09
7.1606196e-09
7.3990192e-09
7.5927405e-09
7.7934309e-09
7.9847174e-09
8.0701641e-09
8.0411954e-09
7.9782012e-09
8.1305166e-09
8.4702597e-09
8.6437834e-09
8.6939414e-09
8.6476096e-09
8.6080399e-09
8.5868937e-09
8.5775702e-09
8.5738938e-09
8.5725504e-09
8.5720941e-09
0.0010151563
0.0025626376
0.0034753366
0.0038503642
0.0035621142
0.0023342168
0.00045436397
4.1717605e-08
3.6030691e-09
3.5976356e-09
3.4976124e-09
3.5375672e-09
3.5015536e-09
3.5410141e-09
3.5539701e-09
3.5987265e-09
3.6385094e-09
3.7035343e-09
3.7770705e-09
3.8762457e-09
3.9947449e-09
4.1447835e-09
4.326195e-09
4.5478548e-09
4.8100339e-09
5.1143441e-09
5.4544452e-09
5.8193228e-09
6.1894283e-09
6.5448867e-09
6.8707151e-09
7.1595914e-09
7.3961527e-09
7.5924566e-09
7.8081425e-09
7.9802471e-09
8.0524383e-09
8.0210363e-09
7.9692302e-09
8.1806889e-09
8.4910687e-09
8.6511451e-09
8.6941492e-09
8.6475781e-09
8.6077551e-09
8.5870029e-09
8.5776771e-09
8.5739255e-09
8.5725549e-09
8.572096e-09
0.0010128122
0.0025375733
0.0034202557
0.0037626162
0.0034366415
0.0021419173
0.00035973051
2.0331332e-08
3.5743347e-09
3.5762606e-09
3.4789712e-09
3.5200526e-09
3.484503e-09
3.5249673e-09
3.5389216e-09
3.5850018e-09
3.6263592e-09
3.6915619e-09
3.7657677e-09
3.8655183e-09
3.9845368e-09
4.1348874e-09
4.3166278e-09
4.5386082e-09
4.8013818e-09
5.1066556e-09
5.4482922e-09
5.8151995e-09
6.1875993e-09
6.5438995e-09
6.8704316e-09
7.1595284e-09
7.3955799e-09
7.5951064e-09
7.8199897e-09
7.971025e-09
8.019635e-09
7.9779389e-09
7.9634537e-09
8.2409153e-09
8.5237907e-09
8.6580254e-09
8.6961505e-09
8.6464891e-09
8.6078949e-09
8.5871739e-09
8.5777858e-09
8.5739728e-09
8.5725701e-09
8.5721006e-09
0.0010110173
0.002514575
0.0033679689
0.0036800499
0.0033187884
0.00195599
0.00027791775
1.171315e-08
3.5579627e-09
3.5650891e-09
3.4695538e-09
3.5107105e-09
3.4771197e-09
3.5187335e-09
3.5335319e-09
3.5803568e-09
3.6221241e-09
3.6886835e-09
3.7633148e-09
3.8634146e-09
3.982824e-09
4.1334087e-09
4.315363e-09
4.5374692e-09
4.8004271e-09
5.1059325e-09
5.4479313e-09
5.8152269e-09
6.1886246e-09
6.5491404e-09
6.8790538e-09
7.1681528e-09
7.400915e-09
7.6086932e-09
7.82923e-09
7.9560222e-09
7.9893287e-09
7.9506248e-09
7.9620009e-09
8.2920569e-09
8.5469546e-09
8.6665797e-09
8.6993357e-09
8.6463513e-09
8.6078599e-09
8.58722e-09
8.5778152e-09
8.5739846e-09
8.5725743e-09
8.5721029e-09
0.0010085107
0.0024904528
0.003316469
0.0035985501
0.0032040148
0.0017702532
0.0002039788
7.8433157e-09
3.5518068e-09
3.5596012e-09
3.4629395e-09
3.5046775e-09
3.4758455e-09
3.5177678e-09
3.5329773e-09
3.5803541e-09
3.6229364e-09
3.6901833e-09
3.7667578e-09
3.8689734e-09
3.990572e-09
4.1432116e-09
4.3271921e-09
4.5511275e-09
4.8158254e-09
5.122824e-09
5.4660803e-09
5.8342362e-09
6.208045e-09
6.568083e-09
6.896996e-09
7.1830963e-09
7.4131552e-09
7.6287065e-09
7.8342423e-09
7.9389214e-09
7.9600419e-09
7.9212986e-09
7.9775077e-09
8.3397813e-09
8.5720996e-09
8.6753536e-09
8.7031268e-09
8.6462069e-09
8.6078561e-09
8.5872618e-09
8.5778383e-09
8.5739954e-09
8.5725787e-09
8.5721049e-09
0.0010078973
0.0024688576
0.0032672046
0.0035170779
0.0030893731
0.0015877155
0.00013714326
5.9514855e-09
3.5517215e-09
3.5619053e-09
3.4675522e-09
3.5053639e-09
3.4821677e-09
3.5258127e-09
3.5425225e-09
3.5918168e-09
3.6363795e-09
3.7058977e-09
3.7846794e-09
3.8892123e-09
4.013358e-09
4.1685624e-09
4.3551908e-09
4.5815914e-09
4.8484642e-09
5.1569463e-09
5.5007032e-09
5.8681332e-09
6.2403216e-09
6.5983161e-09
6.9242927e-09
7.2053372e-09
7.4321308e-09
7.6527758e-09
7.8377343e-09
7.9222254e-09
7.9362499e-09
7.9072518e-09
8.0119084e-09
8.381361e-09
8.5967967e-09
8.6848607e-09
8.7067155e-09
8.6461933e-09
8.6077855e-09
8.5872865e-09
8.5778536e-09
8.5740018e-09
8.5725815e-09
8.5721066e-09
0.0010055788
0.0024472924
0.0032186768
0.0034367933
0.0029763134
0.0014134229
8.0482314e-05
4.9828674e-09
3.5617493e-09
3.5740658e-09
3.4809808e-09
3.5213495e-09
3.4978523e-09
3.5427138e-09
3.5608288e-09
3.6117852e-09
3.658466e-09
3.7303693e-09
3.8119214e-09
3.9195196e-09
4.0471061e-09
4.2059091e-09
4.3963333e-09
4.626375e-09
4.8964893e-09
5.2071883e-09
5.5516194e-09
5.9177228e-09
6.2865848e-09
6.6398796e-09
6.9601049e-09
7.2340612e-09
7.4571529e-09
7.6782194e-09
7.8412737e-09
7.9083293e-09
7.916986e-09
7.9003712e-09
8.0583242e-09
8.4213167e-09
8.6230326e-09
8.6965332e-09
8.7092772e-09
8.6461977e-09
8.6076407e-09
8.5872621e-09
8.5778651e-09
8.5740065e-09
8.5725836e-09
8.5721081e-09
0.0010051972
0.0024289654
0.0031725301
0.0033563413
0.0028621375
0.0012460827
3.9027705e-05
4.4699624e-09
3.577354e-09
3.5921158e-09
3.5005321e-09
3.5422358e-09
3.5202013e-09
3.5666975e-09
3.5865231e-09
3.6396153e-09
3.6886382e-09
3.7632153e-09
3.8478926e-09
3.9589854e-09
4.0905987e-09
4.2537382e-09
4.4488243e-09
4.6834389e-09
4.9576415e-09
5.271114e-09
5.616223e-09
5.9802756e-09
6.3444991e-09
6.6913341e-09
7.0037378e-09
7.269e-09
7.4875457e-09
7.7035821e-09
7.8462285e-09
7.9013528e-09
7.9047377e-09
7.8991808e-09
8.1112209e-09
8.4594813e-09
8.6491484e-09
8.7118312e-09
8.7101425e-09
8.6460415e-09
8.6073802e-09
8.5871487e-09
8.5778422e-09
8.5740094e-09
8.572585e-09
8.5721094e-09
0.0010042101
0.0024109713
0.0031279797
0.0032777934
0.0027458529
0.001087907
1.5643238e-05
4.2010108e-09
3.5990645e-09
3.6160447e-09
3.5258537e-09
3.5689693e-09
3.5482169e-09
3.5962958e-09
3.6179663e-09
3.6731943e-09
3.7248522e-09
3.8023832e-09
3.8905908e-09
4.0057274e-09
4.1420591e-09
4.3103548e-09
4.5110324e-09
4.7511996e-09
5.030398e-09
5.347293e-09
5.6932427e-09
6.0547486e-09
6.4131236e-09
6.7517287e-09
7.0543123e-09
7.3095073e-09
7.5226018e-09
7.7279862e-09
7.8524502e-09
7.8981918e-09
7.898942e-09
7.8999469e-09
8.1656038e-09
8.4967924e-09
8.6737544e-09
8.7310143e-09
8.7102309e-09
8.6456579e-09
8.6070005e-09
8.5869593e-09
8.5777712e-09
8.5739899e-09
8.5725858e-09
8.5721107e-09
0.0010047382
0.0023946962
0.0030854566
0.0032015281
0.0026242504
0.00093859884
5.4244377e-06
4.0642239e-09
3.6251935e-09
3.6442523e-09
3.5555541e-09
3.6001696e-09
3.5809176e-09
3.6307211e-09
3.6543587e-09
3.7119525e-09
3.7663894e-09
3.8471711e-09
3.9393241e-09
4.0589953e-09
4.2006602e-09
4.3748307e-09
4.5819122e-09
4.8284749e-09
5.1134261e-09
5.4342368e-09
5.7810596e-09
6.1395108e-09
6.4910013e-09
6.8199088e-09
7.1110051e-09
7.3549255e-09
7.5614425e-09
7.7512697e-09
7.8596668e-09
7.8970993e-09
7.8965001e-09
7.9131592e-09
8.2217886e-09
8.5335569e-09
8.6972143e-09
8.7491447e-09
8.7101983e-09
8.6450476e-09
8.6064918e-09
8.586695e-09
8.5776642e-09
8.5739566e-09
8.5725796e-09
8.5721116e-09
0.001004654
0.0023784923
0.003043646
0.0031213249
0.0024961141
0.00080009975
1.7516199e-06
4.0030081e-09
3.6554531e-09
3.6764173e-09
3.5892971e-09
3.6353736e-09
3.6176825e-09
3.6692079e-09
3.6949642e-09
3.7550247e-09
3.8125595e-09
3.8968918e-09
3.9933943e-09
4.1181097e-09
4.2657231e-09
4.4464732e-09
4.6607332e-09
4.914474e-09
5.2058431e-09
5.5309553e-09
5.8786018e-09
6.2334521e-09
6.5770434e-09
6.8948861e-09
7.1729989e-09
7.4044703e-09
7.6021263e-09
7.774178e-09
7.8677301e-09
7.8967048e-09
7.8959915e-09
7.9383468e-09
8.280001e-09
8.5691896e-09
8.719251e-09
8.7658387e-09
8.7099958e-09
8.6441798e-09
8.6058579e-09
8.5863685e-09
8.5775278e-09
8.5739114e-09
8.5725702e-09
8.5721124e-09
0.0010053873
0.0023624408
0.0030003314
0.0030405225
0.0023601701
0.00067318772
5.6093596e-07
3.9840356e-09
3.6889037e-09
3.711796e-09
3.6263473e-09
3.6739499e-09
3.6579975e-09
3.7113507e-09
3.7393945e-09
3.8021275e-09
3.8630109e-09
3.9512348e-09
4.0525436e-09
4.1828074e-09
4.3369608e-09
4.5249536e-09
4.747102e-09
5.0087007e-09
5.3070039e-09
5.6366162e-09
5.9848612e-09
6.3354378e-09
6.6701271e-09
6.9756673e-09
7.2394992e-09
7.4573596e-09
7.6437419e-09
7.7968764e-09
7.8771339e-09
7.9004864e-09
7.9003248e-09
7.9785563e-09
8.3394817e-09
8.6044112e-09
8.7388722e-09
8.7806969e-09
8.7089818e-09
8.6430489e-09
8.60511e-09
8.5859904e-09
8.5773709e-09
8.5738591e-09
8.5725584e-09
8.572113e-09
0.0010061669
0.0023467814
0.0029565319
0.0029584969
0.0022159498
0.0005605067
1.8876474e-07
3.9902283e-09
3.7253107e-09
3.7501072e-09
3.6664177e-09
3.7156481e-09
3.7015413e-09
3.7568574e-09
3.7873689e-09
3.8530077e-09
3.9175515e-09
4.010031e-09
4.1165658e-09
4.2528694e-09
4.4141391e-09
4.6100151e-09
4.8407216e-09
5.1107795e-09
5.4164053e-09
5.7505533e-09
6.0990016e-09
6.4445237e-09
6.7692856e-09
7.0613626e-09
7.3097516e-09
7.512838e-09
7.6856875e-09
7.8198606e-09
7.8882606e-09
7.907835e-09
7.9111869e-09
8.0315894e-09
8.399026e-09
8.639799e-09
8.7560644e-09
8.7922804e-09
8.7074788e-09
8.641688e-09
8.6042646e-09
8.5855726e-09
8.5771999e-09
8.5738026e-09
8.5725457e-09
8.5721134e-09
0.0010076121
0.0023314021
0.002912864
0.0028759147
0.0020638664
0.00045713806
6.974745e-08
4.010675e-09
3.7644184e-09
3.7909487e-09
3.7093532e-09
3.7602113e-09
3.7482387e-09
3.8055655e-09
3.838846e-09
3.9075812e-09
3.9761553e-09
4.0732452e-09
4.1854512e-09
4.32829e-09
4.4972532e-09
4.7016433e-09
4.9415376e-09
5.2205668e-09
5.5337479e-09
5.872262e-09
6.2203043e-09
6.5598497e-09
6.8736055e-09
7.1511147e-09
7.383023e-09
7.5702466e-09
7.7278281e-09
7.8438711e-09
7.9017668e-09
7.9194736e-09
7.9274523e-09
8.0936044e-09
8.4566097e-09
8.6763536e-09
8.7721817e-09
8.7987319e-09
8.7055626e-09
8.6401331e-09
8.6033372e-09
8.5851252e-09
8.5770206e-09
8.5737444e-09
8.5725327e-09
8.5721137e-09
0.001008919
0.0023154258
0.0028679884
0.0027921261
0.0019046009
0.00036292654
2.9762108e-08
4.0410922e-09
3.8062422e-09
3.8345743e-09
3.7551157e-09
3.8076968e-09
3.7979772e-09
3.8575366e-09
3.8937734e-09
3.9659485e-09
4.038832e-09
4.14087e-09
4.2591718e-09
4.4090391e-09
4.5862712e-09
4.7997943e-09
5.049466e-09
5.3378904e-09
5.6587112e-09
6.0012332e-09
6.3480847e-09
6.6805959e-09
6.9822271e-09
7.2441304e-09
7.4586341e-09
7.6290079e-09
7.7701367e-09
7.8697273e-09
7.9185211e-09
7.9343135e-09
7.9508643e-09
8.1595919e-09
8.5110618e-09
8.7137817e-09
8.7907289e-09
8.8013053e-09
8.703305e-09
8.6384105e-09
8.6023415e-09
8.5846578e-09
8.5768375e-09
8.5736862e-09
8.5725199e-09
8.572114e-09
0.0010103134
0.0022989093
0.0028210854
0.0027001107
0.0017397534
0.00027696343
1.5173128e-08
4.077539e-09
3.8505156e-09
3.8807007e-09
3.8035734e-09
3.8580099e-09
3.8508659e-09
3.9127959e-09
3.9523104e-09
4.028073e-09
4.1056139e-09
4.2129654e-09
4.3378204e-09
4.4952433e-09
4.6813462e-09
4.9046254e-09
5.1646265e-09
5.4627671e-09
5.7911422e-09
6.1370862e-09
6.48175e-09
6.8059897e-09
7.0943088e-09
7.3396359e-09
7.5359362e-09
7.6886436e-09
7.8126819e-09
7.897821e-09
7.9391826e-09
7.9522336e-09
7.9815714e-09
8.2256715e-09
8.561972e-09
8.7495441e-09
8.813321e-09
8.8017634e-09
8.7007917e-09
8.6365319e-09
8.6012901e-09
8.5841786e-09
8.5766541e-09
8.5736292e-09
8.5725077e-09
8.5721142e-09
0.0010116634
0.0022814205
0.0027726299
0.0026081531
0.0015721445
0.00019850904
9.3195922e-09
4.1184469e-09
3.8973322e-09
3.9294541e-09
3.8549157e-09
3.9113697e-09
3.9069791e-09
3.9714651e-09
4.0144223e-09
4.0940797e-09
4.1765598e-09
4.2895838e-09
4.4214633e-09
4.586986e-09
4.7825719e-09
5.0162198e-09
5.2870511e-09
5.595112e-09
5.930783e-09
6.2793523e-09
6.6206273e-09
6.9352157e-09
7.2090069e-09
7.4369217e-09
7.6143672e-09
7.7487714e-09
7.8555455e-09
7.9281133e-09
7.9633589e-09
7.9741562e-09
8.0205863e-09
8.2915412e-09
8.6092646e-09
8.7822757e-09
8.838988e-09
8.8015731e-09
8.6980734e-09
8.6344988e-09
8.6001979e-09
8.5836953e-09
8.576473e-09
8.573574e-09
8.5724963e-09
8.5721143e-09
0.0010130472
0.0022632143
0.0027195986
0.0025148593
0.0014033097
0.00012726319
6.7378423e-09
4.1627379e-09
3.946912e-09
3.9810712e-09
3.9092977e-09
3.9678476e-09
3.9664388e-09
4.0335366e-09
4.0802186e-09
4.1639311e-09
4.2517287e-09
4.3708511e-09
4.510279e-09
4.6844961e-09
4.8902042e-09
5.1348391e-09
5.4169429e-09
5.7350039e-09
6.0775016e-09
6.4276667e-09
6.7641011e-09
7.0674999e-09
7.3255245e-09
7.5353267e-09
7.6934052e-09
7.8090754e-09
7.8988227e-09
7.9603377e-09
7.9907024e-09
8.0005597e-09
8.0676401e-09
8.3576937e-09
8.6533135e-09
8.8116913e-09
8.8628475e-09
8.7992951e-09
8.6948649e-09
8.6323194e-09
8.599082e-09
8.5832144e-09
8.5762962e-09
8.5735212e-09
8.5724859e-09
8.5721151e-09
0.0010145477
0.0022454451
0.0026675758
0.0024189289
0.0012358217
6.7715153e-05
5.5300461e-09
4.2100856e-09
3.99948e-09
4.0356718e-09
3.9667824e-09
4.02747e-09
4.0291571e-09
4.0990399e-09
4.1496371e-09
4.23776e-09
4.3312403e-09
4.4569037e-09
4.6044288e-09
4.7879501e-09
5.0044286e-09
5.2606396e-09
5.5543841e-09
5.8823677e-09
6.2310102e-09
6.5815003e-09
6.91143e-09
7.202004e-09
7.4431379e-09
7.6342772e-09
7.7725488e-09
7.8693023e-09
7.9427028e-09
7.9944353e-09
8.0207361e-09
8.0317154e-09
8.1216962e-09
8.4247259e-09
8.69458e-09
8.8367981e-09
8.8831499e-09
8.794593e-09
8.6911381e-09
8.6300429e-09
8.5979594e-09
8.5827407e-09
8.5761251e-09
8.5734711e-09
8.5724764e-09
8.5721162e-09
0.0010161028
0.0022274134
0.0026155427
0.002318056
0.0010722435
2.7917407e-05
4.9547501e-09
4.2601312e-09
4.0549058e-09
4.0930798e-09
4.0271817e-09
4.0900816e-09
4.0951299e-09
4.1679438e-09
4.2228205e-09
4.3156249e-09
4.4152483e-09
4.5479564e-09
4.7041793e-09
4.8976594e-09
5.12558e-09
5.3939408e-09
5.6996066e-09
6.0372631e-09
6.391118e-09
6.7403717e-09
7.0619156e-09
7.3379974e-09
7.5613227e-09
7.7332425e-09
7.8511945e-09
7.929155e-09
7.9872842e-09
8.0303862e-09
8.0526929e-09
8.0674825e-09
8.1805648e-09
8.492363e-09
8.7340938e-09
8.8578846e-09
8.8982223e-09
8.7887791e-09
8.6870891e-09
8.627717e-09
8.5968426e-09
8.5822779e-09
8.5759606e-09
8.5734238e-09
8.5724677e-09
8.5721175e-09
0.0010176096
0.0022084554
0.0025608769
0.0022106401
0.00091534829
9.0130521e-06
4.6908071e-09
4.3136231e-09
4.1128118e-09
4.1530734e-09
4.0904351e-09
4.1557223e-09
4.1643823e-09
4.2403886e-09
4.299848e-09
4.39776e-09
4.5039561e-09
4.6442313e-09
4.8097694e-09
5.0138823e-09
5.2539093e-09
5.5349488e-09
5.8526896e-09
6.19956e-09
6.5574157e-09
6.9035974e-09
7.2147249e-09
7.4748258e-09
7.6797856e-09
7.8316944e-09
7.9286365e-09
7.9883832e-09
8.0325842e-09
8.0679457e-09
8.0862248e-09
8.1073318e-09
8.2438344e-09
8.5589963e-09
8.7733041e-09
8.8762053e-09
8.9057285e-09
8.7823671e-09
8.6828557e-09
8.6253758e-09
8.5957415e-09
8.5818289e-09
8.5758035e-09
8.5733794e-09
8.57246e-09
8.5721189e-09
0.0010190889
0.0021889956
0.0025040391
0.0020969463
0.00076771044
2.5045176e-06
4.5844073e-09
4.3700539e-09
4.1733365e-09
4.2158373e-09
4.1566614e-09
4.2245165e-09
4.2370854e-09
4.316518e-09
4.3809477e-09
4.4843219e-09
4.5976017e-09
4.7460172e-09
4.9215428e-09
5.1370008e-09
5.389817e-09
5.6840181e-09
6.0138547e-09
6.3692314e-09
6.7295547e-09
7.0705472e-09
7.3691734e-09
7.6121243e-09
7.7983387e-09
7.9288989e-09
8.0041886e-09
8.0467114e-09
8.0783261e-09
8.1065323e-09
8.1210474e-09
8.1497216e-09
8.3100867e-09
8.622004e-09
8.8126705e-09
8.8937902e-09
8.9082965e-09
8.7755621e-09
8.6785214e-09
8.6230421e-09
8.5946628e-09
8.5813956e-09
8.5756541e-09
8.5733381e-09
8.5724531e-09
8.5721206e-09
0.0010206995
0.0021695736
0.0024452219
0.0019788666
0.00063173591
6.6899396e-07
4.5600372e-09
4.4289302e-09
4.2366902e-09
4.2814847e-09
4.22606e-09
4.296615e-09
4.3134076e-09
4.396511e-09
4.4662992e-09
4.575562e-09
4.6964452e-09
4.8536026e-09
5.0398103e-09
5.2673406e-09
5.5336077e-09
5.8413674e-09
6.1831286e-09
6.5460045e-09
6.9069246e-09
7.2403947e-09
7.524619e-09
7.7496558e-09
7.916284e-09
8.0236784e-09
8.0776874e-09
8.104022e-09
8.1242524e-09
8.1457457e-09
8.1568963e-09
8.1931047e-09
8.3786834e-09
8.6786651e-09
8.8502152e-09
8.913288e-09
8.9086189e-09
8.768555e-09
8.6741454e-09
8.6207326e-09
8.5936125e-09
8.5809797e-09
8.5755127e-09
8.5732997e-09
8.5724473e-09
8.5721226e-09
0.0010224247
0.0021505295
0.0023855294
0.0018518745
0.00050948302
1.9397163e-07
4.5784434e-09
4.4906142e-09
4.3029051e-09
4.3502571e-09
4.2987091e-09
4.3722281e-09
4.3935022e-09
4.4805821e-09
4.5561237e-09
4.6717113e-09
4.8007813e-09
4.9673466e-09
5.1649846e-09
5.4053552e-09
5.6857284e-09
6.0073521e-09
6.3606414e-09
6.7296692e-09
7.0889623e-09
7.4124698e-09
7.6807519e-09
7.8872026e-09
8.0320414e-09
8.1153989e-09
8.1489183e-09
8.1602067e-09
8.1699955e-09
8.1851417e-09
8.1935033e-09
8.2380069e-09
8.4461678e-09
8.7295889e-09
8.8838664e-09
8.9382173e-09
8.9078274e-09
8.7615013e-09
8.6697629e-09
8.6184587e-09
8.5925951e-09
8.5805824e-09
8.5753794e-09
8.5732642e-09
8.5724423e-09
8.5721249e-09
0.0010243816
0.0021320326
0.0023327311
0.0017160945
0.00040492351
6.8407425e-08
4.6199431e-09
4.5550911e-09
4.3722239e-09
4.4221965e-09
4.3748427e-09
4.4514796e-09
4.477576e-09
4.5689143e-09
4.6506678e-09
4.7730699e-09
4.9109362e-09
5.0876075e-09
5.2974502e-09
5.5514352e-09
5.8465165e-09
6.182155e-09
6.5462716e-09
6.9197139e-09
7.2748564e-09
7.586104e-09
7.8373215e-09
8.023808e-09
8.1440827e-09
8.2033103e-09
8.2179248e-09
8.2151393e-09
8.215464e-09
8.2244446e-09
8.2307716e-09
8.2858201e-09
8.5115806e-09
8.77563e-09
8.9155265e-09
8.9636602e-09
8.9018958e-09
8.7545524e-09
8.6653848e-09
8.6162307e-09
8.5916152e-09
8.5802045e-09
8.575254e-09
8.5732315e-09
8.5724382e-09
8.5721276e-09
0.0010264408
0.0021120067
0.0022735811
0.0015706291
0.00030986946
2.9114293e-08
4.6740839e-09
4.6224895e-09
4.4447556e-09
4.4975391e-09
4.454593e-09
4.5345736e-09
4.5658147e-09
4.6617557e-09
4.7501855e-09
4.8799327e-09
5.0272831e-09
5.214822e-09
5.437704e-09
5.7060959e-09
6.0164563e-09
6.3660655e-09
6.7399806e-09
7.1156715e-09
7.463972e-09
7.7610041e-09
7.994069e-09
8.1574917e-09
8.2513513e-09
8.287376e-09
8.2847053e-09
8.2683686e-09
8.2606283e-09
8.2633434e-09
8.2686576e-09
8.3373949e-09
8.5753108e-09
8.8178812e-09
8.9438649e-09
8.9857215e-09
8.891763e-09
8.7472336e-09
8.6610086e-09
8.614062e-09
8.5906766e-09
8.5798464e-09
8.5751365e-09
8.5732015e-09
8.5724349e-09
8.5721306e-09
0.001028671
0.0020914465
0.0022142937
0.0014182742
0.000224294
1.5404643e-08
4.7368314e-09
4.6931473e-09
4.5206718e-09
4.5764089e-09
4.5381227e-09
4.6216633e-09
4.6584273e-09
4.7593341e-09
4.8549859e-09
4.9926788e-09
5.1502231e-09
5.3494366e-09
5.5862053e-09
5.8697946e-09
6.1958763e-09
6.5591544e-09
6.9413943e-09
7.3167978e-09
7.655587e-09
7.9369172e-09
8.1497085e-09
8.2865009e-09
8.3531115e-09
8.369235e-09
8.3485584e-09
8.3194673e-09
8.3050526e-09
8.3018428e-09
8.30737e-09
8.3915176e-09
8.6380872e-09
8.8567878e-09
8.9673389e-09
9.0018719e-09
8.8797235e-09
8.7396122e-09
8.6566836e-09
8.611968e-09
8.589782e-09
8.5795081e-09
8.5750265e-09
8.5731739e-09
8.5724325e-09
8.5721339e-09
0.0010312169
0.0020697842
0.002152342
0.0012619154
0.00014705923
1.0010479e-08
4.8053558e-09
4.7668416e-09
4.5999537e-09
4.6588854e-09
4.6255866e-09
4.7129676e-09
4.7556611e-09
4.8619619e-09
4.965404e-09
5.1116874e-09
5.2802156e-09
5.4919784e-09
5.743536e-09
6.0431091e-09
6.3852302e-09
6.7615474e-09
7.1501859e-09
7.5224775e-09
7.8493349e-09
8.113603e-09
8.3020585e-09
8.4097222e-09
8.4505972e-09
8.4480986e-09
8.4091899e-09
8.3687436e-09
8.3478918e-09
8.34006e-09
8.3471251e-09
8.4470684e-09
8.6998128e-09
8.8931067e-09
8.986073e-09
9.010621e-09
8.8670584e-09
8.7318885e-09
8.6524615e-09
8.6099595e-09
8.5889323e-09
8.5791892e-09
8.5749239e-09
8.5731488e-09
8.5724308e-09
8.5721375e-09
0.0010338204
0.0020462996
0.0020873869
0.0011111252
8.1776213e-05
7.6801017e-09
4.8783799e-09
4.8439258e-09
4.6828488e-09
4.7452581e-09
4.7172526e-09
4.8087419e-09
4.8578047e-09
4.9699576e-09
5.0818407e-09
5.2374145e-09
5.4177574e-09
5.6429816e-09
5.9102525e-09
6.2265218e-09
6.5847734e-09
6.9730535e-09
7.3656826e-09
7.7319254e-09
8.0448798e-09
8.2895008e-09
8.4492419e-09
8.5264253e-09
8.5452035e-09
8.5229977e-09
8.4665387e-09
8.4159475e-09
8.3892482e-09
8.3779195e-09
8.3884411e-09
8.5048129e-09
8.7589633e-09
8.9273941e-09
9.0014753e-09
9.0132047e-09
8.8541674e-09
8.7242221e-09
8.6483806e-09
8.608043e-09
8.5881279e-09
8.5788892e-09
8.5748283e-09
8.573126e-09
8.5724297e-09
8.5721415e-09
0.001036184
0.0020177793
0.0020175892
0.00096722861
3.5742466e-05
6.612371e-09
4.9556414e-09
4.9247081e-09
4.7696647e-09
4.835725e-09
4.8133471e-09
4.9092543e-09
4.9651925e-09
5.0837134e-09
5.2047114e-09
5.3703455e-09
5.5634077e-09
5.8030917e-09
6.087023e-09
6.4206395e-09
6.7948243e-09
7.1935204e-09
7.5873119e-09
7.9446462e-09
8.2420408e-09
8.4622842e-09
8.5898954e-09
8.6381144e-09
8.6360735e-09
8.5936406e-09
8.5204608e-09
8.4608604e-09
8.4291708e-09
8.4153778e-09
8.4315376e-09
8.5652288e-09
8.8132546e-09
8.9592742e-09
9.0172148e-09
9.0133195e-09
8.8413481e-09
8.7167255e-09
8.6444639e-09
8.6062207e-09
8.5873676e-09
8.5786073e-09
8.5747394e-09
8.5731054e-09
8.5724293e-09
8.572146e-09
0.0010381053
0.0019849552
0.0019414863
0.00083101784
1.2172061e-05
6.1237833e-09
5.0366235e-09
5.0091782e-09
4.8604592e-09
4.9304926e-09
4.9141252e-09
5.0148691e-09
5.07819e-09
5.2036006e-09
5.3344985e-09
5.5110244e-09
5.7177831e-09
5.9729608e-09
6.2744829e-09
6.6259043e-09
7.0154182e-09
7.4224106e-09
7.8142674e-09
8.1600862e-09
8.439461e-09
8.6296817e-09
8.7230617e-09
8.7462766e-09
8.7221719e-09
8.6598509e-09
8.5708602e-09
8.5034027e-09
8.4677259e-09
8.4524202e-09
8.4765619e-09
8.627453e-09
8.8614881e-09
8.9891751e-09
9.03715e-09
9.0120679e-09
8.8289221e-09
8.7094879e-09
8.6407232e-09
8.604492e-09
8.5866505e-09
8.5783431e-09
8.5746568e-09
8.5730868e-09
8.5724298e-09
8.5721508e-09
0.0010395127
0.0019468771
0.0018552099
0.00070342851
3.4911532e-06
5.9189038e-09
5.1214118e-09
5.0974463e-09
4.9555303e-09
5.029857e-09
5.0200336e-09
5.1259363e-09
5.1972315e-09
5.330047e-09
5.4716994e-09
5.6600701e-09
5.88159e-09
6.1533659e-09
6.4733639e-09
6.8428537e-09
7.2465987e-09
7.6592818e-09
8.0459897e-09
8.3780531e-09
8.6346499e-09
8.7901455e-09
8.8503898e-09
8.8497864e-09
8.8033264e-09
8.7215391e-09
8.6176446e-09
8.5435118e-09
8.5049108e-09
8.4889583e-09
8.5235184e-09
8.6886302e-09
8.905637e-09
9.0189796e-09
9.0588744e-09
9.0044192e-09
8.8171531e-09
8.7025516e-09
8.6371554e-09
8.602854e-09
8.5859752e-09
8.5780957e-09
8.5745801e-09
8.5730702e-09
8.5724309e-09
8.572156e-09
0.0010403542
0.0019034619
0.0017518403
0.0005857027
9.4625353e-07
5.8587413e-09
5.2104183e-09
5.1899625e-09
5.055279e-09
5.1343303e-09
5.1314353e-09
5.2428586e-09
5.3226782e-09
5.4636841e-09
5.6169362e-09
5.8181996e-09
6.055606e-09
6.3450704e-09
6.6843191e-09
7.0717428e-09
7.4880515e-09
7.9033337e-09
8.2817898e-09
8.5977862e-09
8.8246435e-09
8.9422643e-09
8.9734032e-09
8.947597e-09
8.8793125e-09
8.7786502e-09
8.6607921e-09
8.5812351e-09
8.5406961e-09
8.5248855e-09
8.5716748e-09
8.7481256e-09
8.9460652e-09
9.0461938e-09
9.0785851e-09
8.9909574e-09
8.8061396e-09
8.6958836e-09
8.6337508e-09
8.6013048e-09
8.5853408e-09
8.5778644e-09
8.5745091e-09
8.5730553e-09
8.5724326e-09
8.5721616e-09
0.0010408393
0.0018564907
0.0016349662
0.0004777295
2.7168936e-07
5.8740003e-09
5.3039009e-09
5.2874226e-09
5.1601317e-09
5.2441657e-09
5.2486308e-09
5.3659572e-09
5.4550229e-09
5.6051053e-09
5.7709324e-09
5.986223e-09
6.2406944e-09
6.5489411e-09
6.908058e-09
7.3128615e-09
7.7394671e-09
8.1539873e-09
8.5212554e-09
8.8167587e-09
9.0077655e-09
9.0874059e-09
9.0910573e-09
9.0395009e-09
8.9500303e-09
8.8310871e-09
8.7003822e-09
8.6166537e-09
8.5750372e-09
8.5599364e-09
8.6176632e-09
8.8059229e-09
8.9828195e-09
9.069072e-09
9.0938218e-09
8.973344e-09
8.7950449e-09
8.6894194e-09
8.6305064e-09
8.5998439e-09
8.5847459e-09
8.5776485e-09
8.5744433e-09
8.5730422e-09
8.5724349e-09
8.5721677e-09
0.0010410115
0.0018065839
0.0015066117
0.00038106535
9.2935018e-08
5.9294705e-09
5.402138e-09
5.3897777e-09
5.2702176e-09
5.3595104e-09
5.371923e-09
5.4957226e-09
5.5948796e-09
5.7550158e-09
5.9345256e-09
6.1650342e-09
6.4377454e-09
6.7658003e-09
7.1450905e-09
7.5661233e-09
8.0001362e-09
8.4103883e-09
8.7636995e-09
9.0318686e-09
9.1820019e-09
9.2271164e-09
9.2021846e-09
9.1252777e-09
9.0153378e-09
8.8786418e-09
8.7366398e-09
8.6499376e-09
8.6079934e-09
8.5939779e-09
8.6616538e-09
8.8615819e-09
9.0159313e-09
9.0869703e-09
9.1020612e-09
8.9543762e-09
8.783909e-09
8.6831816e-09
8.6274303e-09
8.5984711e-09
8.5841893e-09
8.5774472e-09
8.5743826e-09
8.5730307e-09
8.5724379e-09
8.5721743e-09
0.0010410408
0.0017528226
0.001378811
0.00029530264
3.9567555e-08
6.0064086e-09
5.5047813e-09
5.4971037e-09
5.3857538e-09
5.4807538e-09
5.5018812e-09
5.6328828e-09
5.743085e-09
5.9142984e-09
6.108623e-09
6.3555711e-09
6.6477312e-09
6.9965343e-09
7.3959496e-09
7.8314492e-09
8.2695042e-09
8.6719469e-09
9.0076034e-09
9.2404761e-09
9.3477087e-09
9.3611877e-09
9.3062713e-09
9.2048878e-09
9.0751406e-09
8.9210874e-09
8.7698597e-09
8.6812438e-09
8.6397982e-09
8.6274416e-09
8.7093392e-09
8.9135306e-09
9.0452074e-09
9.1012985e-09
9.1044763e-09
8.9351678e-09
8.7729125e-09
8.6772145e-09
8.6245297e-09
8.5971851e-09
8.5836694e-09
8.5772597e-09
8.5743266e-09
8.5730208e-09
8.5724415e-09
8.5721814e-09
0.00104111
0.0016907957
0.0012496115
0.00021643782
2.0608413e-08
6.0956713e-09
5.6121513e-09
5.6095845e-09
5.5073218e-09
5.608665e-09
5.6394245e-09
5.7783135e-09
5.9005533e-09
6.0838793e-09
6.2941789e-09
6.5588357e-09
6.871627e-09
7.2419011e-09
7.6608252e-09
8.1083023e-09
8.5466997e-09
8.937871e-09
9.2495784e-09
9.4402827e-09
9.5063109e-09
9.48812e-09
9.403149e-09
9.2782555e-09
9.1293557e-09
8.9584444e-09
8.8002523e-09
8.7107586e-09
8.6708377e-09
8.6611981e-09
8.7611301e-09
8.9599223e-09
9.0717182e-09
9.1155308e-09
9.1041537e-09
8.9161968e-09
8.7622332e-09
8.6715597e-09
8.6218089e-09
8.5959834e-09
8.5831841e-09
8.577085e-09
8.5742751e-09
8.5730125e-09
8.5724458e-09
8.5721891e-09
0.0010429245
0.0016378736
0.0011186715
0.00014427492
1.3124028e-08
6.1935798e-09
5.724801e-09
5.7285189e-09
5.6358782e-09
5.7443548e-09
5.7854626e-09
5.932957e-09
6.068152e-09
6.2646764e-09
6.4921923e-09
6.7758955e-09
7.1104988e-09
7.5026755e-09
7.9399039e-09
8.3962009e-09
8.831056e-09
9.207471e-09
9.4862293e-09
9.6300105e-09
9.6591047e-09
9.6068062e-09
9.4927864e-09
9.3454393e-09
9.1779742e-09
8.9910699e-09
8.8279944e-09
8.7387559e-09
8.7011693e-09
8.6958036e-09
8.8141848e-09
9.0005692e-09
9.097189e-09
9.132936e-09
9.1024975e-09
8.8978728e-09
8.7520257e-09
8.666246e-09
8.6192662e-09
8.5948615e-09
8.582731e-09
8.5769224e-09
8.5742278e-09
8.5730056e-09
8.5724507e-09
8.5721974e-09
0.001045262
0.0015798376
0.00098672569
8.1609962e-05
9.8540866e-09
6.2983318e-09
5.8442908e-09
5.8551058e-09
5.7725686e-09
5.8885936e-09
5.9408432e-09
6.0975786e-09
6.2467459e-09
6.4576924e-09
6.7037532e-09
7.007904e-09
7.3653394e-09
7.7793757e-09
8.2328801e-09
8.6942814e-09
9.121469e-09
9.4777107e-09
9.7146677e-09
9.810826e-09
9.8041971e-09
9.7171206e-09
9.5751502e-09
9.406435e-09
9.2209545e-09
9.0192871e-09
8.8534422e-09
8.7656917e-09
8.7303181e-09
8.731821e-09
8.8661814e-09
9.0374907e-09
9.1218636e-09
9.150992e-09
9.0953391e-09
8.8807078e-09
8.7424361e-09
8.6612859e-09
8.6168938e-09
8.5938141e-09
8.582308e-09
8.5767711e-09
8.5741845e-09
8.5730003e-09
8.5724564e-09
8.5722064e-09
0.0010487881
0.001518323
0.00085738216
3.6402382e-05
8.3574982e-09
6.4096048e-09
5.9714502e-09
5.9899488e-09
5.9180066e-09
6.0419579e-09
6.1062224e-09
6.2730024e-09
6.4373139e-09
6.6640272e-09
6.9300732e-09
7.2560848e-09
7.6372038e-09
8.0724585e-09
8.5395053e-09
9.0018676e-09
9.4172568e-09
9.7449204e-09
9.9323987e-09
9.9846923e-09
9.9402811e-09
9.818949e-09
9.6503853e-09
9.4613469e-09
9.258282e-09
9.0434469e-09
8.8768435e-09
8.7917143e-09
8.7580295e-09
8.7694789e-09
8.9163125e-09
9.0713788e-09
9.1448136e-09
9.1671205e-09
9.0825802e-09
8.8650965e-09
8.7335347e-09
8.6566613e-09
8.6146768e-09
8.5928351e-09
8.5819134e-09
8.5766304e-09
8.574145e-09
8.5729965e-09
8.5724628e-09
8.5722161e-09
0.0010539042
0.0014524088
0.00073306157
1.2622547e-05
7.6798286e-09
6.5286241e-09
6.1063743e-09
6.1331663e-09
6.0725845e-09
6.2050168e-09
6.2824044e-09
6.4602189e-09
6.6410015e-09
6.8849718e-09
7.1724942e-09
7.5217168e-09
7.9269172e-09
8.3819791e-09
8.8589716e-09
9.3178632e-09
9.7166926e-09
1.000482e-08
1.0139284e-08
1.0150646e-08
1.0066601e-08
9.9122387e-09
9.7185809e-09
9.5103009e-09
9.2901114e-09
9.0638177e-09
8.898288e-09
8.8166341e-09
8.7848069e-09
8.8085504e-09
8.9647171e-09
9.1020512e-09
9.1648059e-09
9.1805129e-09
9.0644319e-09
8.8512646e-09
8.7252633e-09
8.6523282e-09
8.6125994e-09
8.5919195e-09
8.5815455e-09
8.5765002e-09
8.574109e-09
8.572994e-09
8.5724699e-09
8.5722267e-09
0.0010608734
0.001385015
0.00061567509
3.676565e-06
7.4033931e-09
6.6590024e-09
6.2493384e-09
6.285302e-09
6.2370397e-09
6.3787127e-09
6.4704637e-09
6.660448e-09
6.8591147e-09
7.1219275e-09
7.4324456e-09
7.8060955e-09
8.2352758e-09
8.707909e-09
9.1906786e-09
9.6412817e-09
1.0015937e-08
1.0254646e-08
1.0337e-08
1.0307079e-08
1.0183111e-08
9.9971402e-09
9.7799772e-09
9.5535764e-09
9.3170254e-09
9.0806912e-09
8.9179247e-09
8.8404661e-09
8.8111055e-09
8.8488891e-09
9.0109014e-09
9.1294094e-09
9.1804692e-09
9.186912e-09
9.0426631e-09
8.8380616e-09
8.7174212e-09
8.6482411e-09
8.6106503e-09
8.591064e-09
8.5812031e-09
8.57638e-09
8.5740767e-09
8.5729928e-09
8.5724779e-09
8.5722381e-09
0.0010689925
0.0013104569
0.00050619664
1.0164667e-06
7.3269031e-09
6.796503e-09
6.4014009e-09
6.4475307e-09
6.4124738e-09
6.5642244e-09
6.6716742e-09
6.8750431e-09
7.09312e-09
7.3764347e-09
7.7114624e-09
8.110391e-09
8.5626854e-09
9.0496326e-09
9.5334699e-09
9.9706067e-09
1.0310215e-08
1.0491863e-08
1.0526801e-08
1.0452207e-08