/*--------------------------------*- C++ -*----------------------------------*\
  =========                 |
  \\      /  F ield         | OpenFOAM: The Open Source CFD Toolbox
   \\    /   O peration     | Website:  https://openfoam.org
    \\  /    A nd           | Version:  8
     \\/     M anipulation  |
\*---------------------------------------------------------------------------*/
FoamFile
{
    version     2.0;
    format      ascii;
    class       volVectorField;
    location    "0.0199971";
    object      cellDisplacement;
}
// * * * * * * * * * * * * * * * * * * * * * * * * * * * * * * * * * * * * * //

dimensions      [0 1 0 0 0 0 0];

internalField   nonuniform List<vector> 
20000
(
(-0.0019985475 0 -0.0014730269)
(-0.0019985294 0 -0.0014731631)
(-0.0019984921 0 -0.0014737171)
(-0.0019984191 0 -0.0014744153)
(-0.0019982948 0 -0.0014752865)
(-0.0019980974 0 -0.0014763762)
(-0.001997797 0 -0.0014777449)
(-0.0019973524 0 -0.0014794731)
(-0.0019967081 0 -0.0014816716)
(-0.0019957885 0 -0.0014844899)
(-0.0019944926 0 -0.001488136)
(-0.0019926853 0 -0.0014928943)
(-0.0019901882 0 -0.0014991548)
(-0.0019867673 0 -0.0015074523)
(-0.0019821187 0 -0.0015185193)
(-0.0019758538 0 -0.0015333558)
(-0.0019674809 0 -0.0015533068)
(-0.0019563919 0 -0.0015802283)
(-0.0019418508 0 -0.0016165412)
(-0.0019229946 0 -0.0016654726)
(-0.0018988536 0 -0.0017311629)
(-0.0018683904 0 -0.0018188094)
(-0.0018305775 0 -0.0019346689)
(-0.0017845244 0 -0.0020858226)
(-0.0017295883 0 -0.002279705)
(-0.0016655881 0 -0.0025229096)
(-0.0015928123 0 -0.0028202417)
(-0.0015122686 0 -0.0031720898)
(-0.0014253526 0 -0.0035745331)
(-0.0013341605 0 -0.0040160855)
(-0.0012408241 0 -0.0044806217)
(-0.0011477438 0 -0.0049465652)
(-0.0010568763 0 -0.0053927899)
(-0.00097008916 0 -0.005798122)
(-0.00088837348 0 -0.0061481426)
(-0.00081282109 0 -0.0064310607)
(-0.00074334969 0 -0.0066432972)
(-0.00068013967 0 -0.0067819719)
(-0.00062231578 0 -0.0068508223)
(-0.00056986593 0 -0.0068482183)
(-0.00052162291 0 -0.0067758467)
(-0.00047655539 0 -0.0066261482)
(-0.00043390163 0 -0.0063952561)
(-0.00039295665 0 -0.0060778277)
(-0.00035285937 0 -0.0056684066)
(-0.00030974113 0 -0.0051256171)
(-0.00026410551 0 -0.0044570379)
(-0.0002075245 0 -0.0035669836)
(-0.00014150704 0 -0.0024373083)
(-5.4787105e-05 0 -0.00092596641)
(-0.0019929993 0 -0.0011973559)
(-0.0019929844 0 -0.0011976107)
(-0.0019929436 0 -0.0011979261)
(-0.0019928658 0 -0.0011983262)
(-0.0019927352 0 -0.0011988441)
(-0.0019925295 0 -0.001199521)
(-0.0019922184 0 -0.0012004106)
(-0.0019917598 0 -0.0012015884)
(-0.0019910972 0 -0.0012031543)
(-0.0019901536 0 -0.0012052495)
(-0.0019888264 0 -0.0012080642)
(-0.0019869784 0 -0.0012118653)
(-0.0019844288 0 -0.0012170212)
(-0.0019809404 0 -0.0012240455)
(-0.0019762064 0 -0.0012336487)
(-0.0019698339 0 -0.0012468096)
(-0.0019613279 0 -0.0012648794)
(-0.0019500753 0 -0.0012896797)
(-0.0019353386 0 -0.0013236901)
(-0.0019162555 0 -0.0013701634)
(-0.0018918608 0 -0.0014333289)
(-0.001861131 0 -0.0015185126)
(-0.0018230638 0 -0.0016321528)
(-0.0017768024 0 -0.0017815766)
(-0.0017217595 0 -0.0019744837)
(-0.0016577997 0 -0.0022178233)
(-0.0015852785 0 -0.0025166669)
(-0.001505206 0 -0.0028719142)
(-0.0014190046 0 -0.003279805)
(-0.0013286934 0 -0.003729336)
(-0.0012363426 0 -0.0042045101)
(-0.0011442338 0 -0.0046839808)
(-0.0010542598 0 -0.0051463297)
(-0.00096820955 0 -0.0055700915)
(-0.00088708718 0 -0.005939966)
(-0.00081193968 0 -0.0062435432)
(-0.00074275434 0 -0.0064762671)
(-0.00067970479 0 -0.0066348609)
(-0.00062199987 0 -0.0067221989)
(-0.00056957871 0 -0.0067368705)
(-0.00052134072 0 -0.006680099)
(-0.00047630284 0 -0.0065451163)
(-0.00043365984 0 -0.0063277954)
(-0.00039270262 0 -0.0060226325)
(-0.00035249618 0 -0.0056232992)
(-0.00030945159 0 -0.0050914369)
(-0.00026361943 0 -0.0044293434)
(-0.00020726502 0 -0.0035484368)
(-0.00014102505 0 -0.0024227633)
(-5.4121675e-05 0 -0.00091440164)
(-0.0019865006 0 -0.00092765541)
(-0.0019864821 0 -0.00092774476)
(-0.0019864364 0 -0.00092786109)
(-0.0019863524 0 -0.00092802711)
(-0.0019862137 0 -0.00092826276)
(-0.0019859974 0 -0.00092859872)
(-0.0019856725 0 -0.00092907764)
(-0.0019851961 0 -0.00092976225)
(-0.0019845103 0 -0.00093074092)
(-0.001983537 0 -0.00093213978)
(-0.0019821716 0 -0.00093413688)
(-0.0019802747 0 -0.00093698426)
(-0.0019776628 0 -0.00094103362)
(-0.0019740955 0 -0.00094678177)
(-0.001969262 0 -0.000954921)
(-0.0019627653 0 -0.00096641972)
(-0.0019541054 0 -0.00098260803)
(-0.0019426668 0 -0.0010053363)
(-0.0019277079 0 -0.0010370725)
(-0.001908368 0 -0.0010811351)
(-0.0018836883 0 -0.001141834)
(-0.0018526601 0 -0.001224629)
(-0.0018143089 0 -0.0013361426)
(-0.0017678161 0 -0.0014839389)
(-0.0017126513 0 -0.0016759764)
(-0.001648733 0 -0.0019195175)
(-0.0015764809 0 -0.0022198856)
(-0.0014969167 0 -0.0025784158)
(-0.001411483 0 -0.0029914948)
(-0.0013221252 0 -0.0034485431)
(-0.0012308466 0 -0.0039337028)
(-0.0011398081 0 -0.0044258709)
(-0.0010508327 0 -0.0049034058)
(-0.00096562556 0 -0.0053446183)
(-0.00088519661 0 -0.0057334225)
(-0.00081054757 0 -0.006056836)
(-0.00074173062 0 -0.0063093824)
(-0.00067891219 0 -0.0064873617)
(-0.00062138432 0 -0.0065928394)
(-0.00056904251 0 -0.0066245157)
(-0.00052085272 0 -0.0065832113)
(-0.00047587248 0 -0.0064627976)
(-0.00043326775 0 -0.0062589614)
(-0.0003923199 0 -0.0059660162)
(-0.00035203466 0 -0.0055768835)
(-0.00030906559 0 -0.0050558238)
(-0.00026307582 0 -0.004400602)
(-0.00020693218 0 -0.0035287268)
(-0.00014051441 0 -0.002407604)
(-5.3476102e-05 0 -0.00090303226)
(-0.001979078 0 -0.00066377944)
(-0.0019790539 0 -0.00066369131)
(-0.0019790011 0 -0.00066359401)
(-0.0019789081 0 -0.00066350663)
(-0.0019787582 0 -0.00066344454)
(-0.0019785281 0 -0.00066343202)
(-0.0019781858 0 -0.00066350275)
(-0.0019776876 0 -0.00066370848)
(-0.0019769743 0 -0.00066412321)
(-0.0019759658 0 -0.00066485767)
(-0.0019745558 0 -0.0006660714)
(-0.0019726021 0 -0.00066799653)
(-0.0019699181 0 -0.0006709684)
(-0.0019662597 0 -0.00067546427)
(-0.0019613121 0 -0.00068216372)
(-0.0019546733 0 -0.00069201804)
(-0.0019458395 0 -0.00070636581)
(-0.0019341893 0 -0.00072703359)
(-0.0019189806 0 -0.00075654711)
(-0.0018993531 0 -0.00079825765)
(-0.0018743556 0 -0.00085657146)
(-0.0018429962 0 -0.00093708352)
(-0.0018043303 0 -0.0010466002)
(-0.0017575824 0 -0.001192914)
(-0.0017022811 0 -0.0013842305)
(-0.0016384055 0 -0.0016280867)
(-0.0015664375 0 -0.0019300484)
(-0.0014874197 0 -0.002291792)
(-0.0014028062 0 -0.0027098516)
(-0.0013144749 0 -0.0031739944)
(-0.0012243516 0 -0.0036685356)
(-0.0011344805 0 -0.0041725954)
(-0.0010466032 0 -0.0046644094)
(-0.00096234379 0 -0.0051220936)
(-0.00088270355 0 -0.0055289044)
(-0.00080864639 0 -0.0058713048)
(-0.00074027666 0 -0.0061429803)
(-0.00067776142 0 -0.0063397742)
(-0.00062046533 0 -0.0064630026)
(-0.00056825525 0 -0.0065113804)
(-0.00052015476 0 -0.0064853657)
(-0.00047526288 0 -0.006379356)
(-0.00043272287 0 -0.0061888817)
(-0.00039180815 0 -0.0059080945)
(-0.00035147237 0 -0.0055292337)
(-0.00030858448 0 -0.0050188714)
(-0.00026247131 0 -0.004370791)
(-0.00020652898 0 -0.0035078918)
(-0.00013997481 0 -0.0023918317)
(-5.2849619e-05 0 -0.00089185227)
(-0.0019707626 0 -0.00040561774)
(-0.0019707323 0 -0.00040536797)
(-0.0019706718 0 -0.00040508225)
(-0.0019705689 0 -0.00040476894)
(-0.0019704063 0 -0.00040443262)
(-0.0019701598 0 -0.00040408726)
(-0.0019697966 0 -0.00040375535)
(-0.0019692716 0 -0.0004034784)
(-0.0019685245 0 -0.0004033191)
(-0.0019674736 0 -0.00040337624)
(-0.0019660103 0 -0.00040379579)
(-0.0019639898 0 -0.0004047968)
(-0.0019612222 0 -0.00040669471)
(-0.0019574596 0 -0.00040995117)
(-0.0019523821 0 -0.00041522589)
(-0.0019455831 0 -0.00042346233)
(-0.0019365529 0 -0.00043598025)
(-0.0019246672 0 -0.00045464193)
(-0.0019091795 0 -0.00048196686)
(-0.0018892326 0 -0.0005213834)
(-0.0018638835 0 -0.00057738855)
(-0.0018321595 0 -0.00065571946)
(-0.0017931484 0 -0.00076337072)
(-0.0017461222 0 -0.00090835559)
(-0.0016906711 0 -0.0010991162)
(-0.0016268413 0 -0.0013434245)
(-0.0015551754 0 -0.0016470659)
(-0.0014767429 0 -0.0020119814)
(-0.0013930036 0 -0.0024348371)
(-0.0013057687 0 -0.0029056991)
(-0.0012168822 0 -0.0034090504)
(-0.0011282693 0 -0.0039242505)
(-0.0010415863 0 -0.004429464)
(-0.00095837196 0 -0.0049026792)
(-0.00087961362 0 -0.0053265771)
(-0.00080623644 0 -0.0056871227)
(-0.00073839249 0 -0.0059772168)
(-0.00067624919 0 -0.0061922411)
(-0.00061924225 0 -0.0063328014)
(-0.000567214 0 -0.006397556)
(-0.00051924568 0 -0.0063866325)
(-0.00047447207 0 -0.0062948433)
(-0.00043202454 0 -0.0061176018)
(-0.00039116573 0 -0.0058488925)
(-0.00035080806 0 -0.0054803638)
(-0.00030800752 0 -0.0049805883)
(-0.00026180492 0 -0.0043399545)
(-0.00020605559 0 -0.0034859649)
(-0.00013940534 0 -0.002375459)
(-5.2239677e-05 0 -0.00088082919)
(-0.0019615801 0 -0.0001530396)
(-0.0019615412 0 -0.00015261176)
(-0.0019614698 0 -0.00015211079)
(-0.0019613536 0 -0.00015154365)
(-0.0019611745 0 -0.00015091183)
(-0.001960908 0 -0.00015022267)
(-0.0019605201 0 -0.00014949125)
(-0.0019599645 0 -0.00014874667)
(-0.0019591794 0 -0.00014803808)
(-0.0019580807 0 -0.00014744777)
(-0.0019565574 0 -0.00014710433)
(-0.0019544616 0 -0.00014720632)
(-0.0019515998 0 -0.00014805411)
(-0.0019477196 0 -0.00015009038)
(-0.0019424965 0 -0.00015396235)
(-0.0019355181 0 -0.00016059783)
(-0.0019262699 0 -0.00017132706)
(-0.0019141215 0 -0.00018799442)
(-0.0018983263 0 -0.00021318614)
(-0.0018780282 0 -0.00025037409)
(-0.0018522946 0 -0.00030416429)
(-0.0018201738 0 -0.00038044035)
(-0.001780789 0 -0.00048638526)
(-0.0017334638 0 -0.00063022592)
(-0.0016778531 0 -0.00082062254)
(-0.0016140748 0 -0.0010655524)
(-0.0015427321 0 -0.0013709902)
(-0.0014649254 0 -0.0017390748)
(-0.0013821146 0 -0.0021665821)
(-0.0012960451 0 -0.0026438234)
(-0.0012084722 0 -0.0031554628)
(-0.0011212039 0 -0.0036810863)
(-0.0010358041 0 -0.0041988633)
(-0.00095372759 0 -0.0046866873)
(-0.00087593761 0 -0.005126771)
(-0.00080332555 0 -0.0055046111)
(-0.00073608123 0 -0.0058123993)
(-0.00067437793 0 -0.0060450426)
(-0.00061771373 0 -0.0062024846)
(-0.00056591787 0 -0.0062832607)
(-0.00051812242 0 -0.0062871911)
(-0.00047349882 0 -0.0062094178)
(-0.00043117042 0 -0.0060452492)
(-0.00039039181 0 -0.0057885229)
(-0.0003500392 0 -0.0054303479)
(-0.00030733533 0 -0.0049410615)
(-0.00026107392 0 -0.0043080762)
(-0.00020551394 0 -0.0034629755)
(-0.00013880582 0 -0.0023584888)
(-5.1645458e-05 0 -0.00086995636)
(-0.0019515551 0 9.4058229e-05)
(-0.0019515072 0 9.4647037e-05)
(-0.0019514246 0 9.5336146e-05)
(-0.0019512944 0 9.6128455e-05)
(-0.0019510977 0 9.7033154e-05)
(-0.0019508088 0 9.8052614e-05)
(-0.0019503926 0 9.9182733e-05)
(-0.0019498016 0 0.00010040395)
(-0.0019489719 0 0.00010167784)
(-0.0019478179 0 0.00010293395)
(-0.0019462257 0 0.00010405682)
(-0.0019440443 0 0.00010486088)
(-0.0019410763 0 0.00010506507)
(-0.0019370645 0 0.00010424205)
(-0.0019316789 0 0.00010176264)
(-0.0019245016 0 9.670585e-05)
(-0.0019150115 0 8.775715e-05)
(-0.0019025752 0 7.3030833e-05)
(-0.0018864419 0 4.9938002e-05)
(-0.0018657601 0 1.4914931e-05)
(-0.0018396083 0 -3.6750057e-05)
(-0.0018070582 0 -0.00011109517)
(-0.0017672719 0 -0.00021549602)
(-0.0017196279 0 -0.00035838629)
(-0.0016638502 0 -0.00054862518)
(-0.0016001316 0 -0.00079436445)
(-0.0015291367 0 -0.0011017312)
(-0.0014519983 0 -0.0014729991)
(-0.0013701715 0 -0.0019050326)
(-0.0012853342 0 -0.0023883505)
(-0.0011991499 0 -0.0029077846)
(-0.0011133071 0 -0.0034431616)
(-0.0010292754 0 -0.0039726947)
(-0.00094842259 0 -0.0044742436)
(-0.00087168443 0 -0.0049296218)
(-0.00079991726 0 -0.0053239183)
(-0.00073334521 0 -0.0056486667)
(-0.00067214652 0 -0.0058983095)
(-0.00061588024 0 -0.0060721595)
(-0.00056436509 0 -0.0061685837)
(-0.00051678438 0 -0.0061871119)
(-0.00047234156 0 -0.0061231324)
(-0.00043016004 0 -0.0059718693)
(-0.00038948495 0 -0.005727012)
(-0.00034916472 0 -0.0053792017)
(-0.00030656704 0 -0.0049002986)
(-0.00026027715 0 -0.0042751979)
(-0.00020490469 0 -0.0034389621)
(-0.00013817524 0 -0.0023409317)
(-5.1065213e-05 0 -0.00085921271)
(-0.0019407135 0 0.00033580105)
(-0.0019406542 0 0.00033656527)
(-0.0019405575 0 0.00033746499)
(-0.0019404098 0 0.00033850595)
(-0.0019401918 0 0.00033970075)
(-0.0019398768 0 0.00034105968)
(-0.0019394286 0 0.00034258592)
(-0.0019387981 0 0.00034427216)
(-0.0019379195 0 0.00034609268)
(-0.0019367045 0 0.0003479925)
(-0.0019350364 0 0.0003498722)
(-0.0019327603 0 0.00035156536)
(-0.0019296747 0 0.00035280513)
(-0.0019255173 0 0.00035318236)
(-0.0019199522 0 0.00035207974)
(-0.0019125553 0 0.00034859017)
(-0.0019028002 0 0.00034138688)
(-0.0018900469 0 0.00032859519)
(-0.0018735457 0 0.00030754599)
(-0.001852448 0 0.00027461538)
(-0.0018258455 0 0.0002249666)
(-0.0017928356 0 0.00015240354)
(-0.0017526227 0 4.9354755e-05)
(-0.0017046438 0 -9.2808574e-05)
(-0.0016486954 0 -0.00028312275)
(-0.0015850487 0 -0.00052988327)
(-0.0015144298 0 -0.00083933478)
(-0.0014380042 0 -0.0012138311)
(-0.0013572175 0 -0.0016502953)
(-0.0012736787 0 -0.0021394147)
(-0.0011889536 0 -0.0026661907)
(-0.0011046128 0 -0.0032106819)
(-0.0010220272 0 -0.0037512046)
(-0.00094247873 0 -0.0042656154)
(-0.00086686907 0 -0.0047354193)
(-0.00079602279 0 -0.0051453324)
(-0.00073019072 0 -0.0054863014)
(-0.00066955967 0 -0.0057523034)
(-0.00061374265 0 -0.0059420636)
(-0.00056255632 0 -0.006053735)
(-0.00051522998 0 -0.0060865715)
(-0.00047099986 0 -0.006036143)
(-0.00042899182 0 -0.0058975907)
(-0.0003884446 0 -0.0056644728)
(-0.00034818258 0 -0.0053270034)
(-0.00030570312 0 -0.0048583857)
(-0.00025941256 0 -0.0042413125)
(-0.00020422908 0 -0.0034139483)
(-0.00013751366 0 -0.0023227943)
(-5.0497897e-05 0 -0.00084858825)
(-0.0019290832 0 0.00057229055)
(-0.0019290117 0 0.00057321824)
(-0.0019289 0 0.00057430975)
(-0.0019287337 0 0.00057558053)
(-0.0019284924 0 0.00057705229)
(-0.0019281484 0 0.00057874335)
(-0.0019276641 0 0.00058066772)
(-0.0019269886 0 0.00058282688)
(-0.0019260542 0 0.00058520646)
(-0.0019247702 0 0.00058776259)
(-0.0019230167 0 0.00059040997)
(-0.0019206352 0 0.00059299522)
(-0.0019174191 0 0.00059527089)
(-0.0019131009 0 0.00059684267)
(-0.0019073383 0 0.00059711092)
(-0.0018997006 0 0.00059517408)
(-0.0018896543 0 0.00058971658)
(-0.001876557 0 0.00057881548)
(-0.001859656 0 0.00055977891)
(-0.0018381095 0 0.00052886886)
(-0.0018110235 0 0.00048112833)
(-0.0017775235 0 0.00041019845)
(-0.0017368602 0 0.00030830289)
(-0.0016885321 0 0.00016663248)
(-0.0016324122 0 -2.4000543e-05)
(-0.0015688528 0 -0.00027200918)
(-0.0014986421 0 -0.00058371325)
(-0.0014229765 0 -0.00096149263)
(-0.0013432876 0 -0.0014023058)
(-0.0012611118 0 -0.0018969795)
(-0.0011779147 0 -0.0024306677)
(-0.0010951471 0 -0.0029836733)
(-0.0010140813 0 -0.0035344461)
(-0.00093591141 0 -0.0040608935)
(-0.00086150331 0 -0.0045442688)
(-0.00079164852 0 -0.0049689758)
(-0.00072662227 0 -0.0053254225)
(-0.0006666183 0 -0.0056071407)
(-0.00061130261 0 -0.0058122958)
(-0.00056049092 0 -0.0059387987)
(-0.00051345929 0 -0.0059856382)
(-0.00046947266 0 -0.0059485015)
(-0.00042766555 0 -0.0058224577)
(-0.00038726958 0 -0.0056009321)
(-0.00034709192 0 -0.00527377)
(-0.00030474263 0 -0.0048153296)
(-0.00025847901 0 -0.0042064618)
(-0.00020348789 0 -0.0033879745)
(-0.00013682008 0 -0.0023040869)
(-4.9942199e-05 0 -0.00083806829)
(-0.0019166877 0 0.00080364451)
(-0.0019166016 0 0.000804746)
(-0.0019164718 0 0.00080604693)
(-0.0019162834 0 0.00080756468)
(-0.0019160152 0 0.00080932523)
(-0.0019156383 0 0.00081135437)
(-0.0019151138 0 0.00081367279)
(-0.001914389 0 0.00081629471)
(-0.0019133938 0 0.00081921744)
(-0.0019120345 0 0.00082241311)
(-0.0019101877 0 0.00082581148)
(-0.0019076906 0 0.0008292786)
(-0.0019043315 0 0.00083258077)
(-0.0018998369 0 0.00083534206)
(-0.0018938579 0 0.00083697462)
(-0.0018859565 0 0.00083658975)
(-0.0018755936 0 0.00083285847)
(-0.0018621208 0 0.00082385708)
(-0.0018447896 0 0.00080677988)
(-0.0018227629 0 0.00077780352)
(-0.0017951624 0 0.00073183882)
(-0.0017611445 0 0.00066236712)
(-0.0017200106 0 0.00056139296)
(-0.0016713235 0 0.0004199525)
(-0.0016150356 0 0.00022873292)
(-0.0015515841 0 -2.0769446e-05)
(-0.0014818175 0 -0.00033491072)
(-0.0014069618 0 -0.00071605036)
(-0.0013284289 0 -0.0011611514)
(-0.0012476798 0 -0.0016611522)
(-0.0011660754 0 -0.0022013555)
(-0.0010849478 0 -0.0027623022)
(-0.0010054687 0 -0.0033226234)
(-0.00092874604 0 -0.0038603039)
(-0.00085560578 0 -0.0043564215)
(-0.00078680881 0 -0.0047951039)
(-0.00072264899 0 -0.0051662867)
(-0.00066332929 0 -0.0054630634)
(-0.00060856305 0 -0.0056830807)
(-0.00055817105 0 -0.005823976)
(-0.0005114721 0 -0.0058844849)
(-0.00046776035 0 -0.005860361)
(-0.00042618037 0 -0.0057465987)
(-0.0003859597 0 -0.0055365028)
(-0.00034589117 0 -0.005219583)
(-0.00030368602 0 -0.0047712156)
(-0.00025747489 0 -0.004170645)
(-0.00020268188 0 -0.0033610605)
(-0.00013609466 0 -0.0022848183)
(-4.9396918e-05 0 -0.00082764056)
(-0.0019035486 0 0.0010299601)
(-0.0019034473 0 0.0010312242)
(-0.0019032987 0 0.0010327162)
(-0.0019030872 0 0.0010344626)
(-0.0019027904 0 0.0010364983)
(-0.0019023779 0 0.0010388573)
(-0.0019018092 0 0.001041571)
(-0.0019010296 0 0.0010446622)
(-0.0018999668 0 0.0010481397)
(-0.0018985239 0 0.0010519873)
(-0.001896574 0 0.0010561487)
(-0.0018939497 0 0.0010605034)
(-0.0018904337 0 0.001064837)
(-0.0018857461 0 0.0010687892)
(-0.0018795307 0 0.001071789)
(-0.0018713418 0 0.0010729553)
(-0.0018606329 0 0.0010709693)
(-0.0018467546 0 0.0010638556)
(-0.0018289616 0 0.0010487027)
(-0.001806424 0 0.0010215612)
(-0.0017782785 0 0.00097723339)
(-0.0017437152 0 0.00090904548)
(-0.0017020933 0 0.00080874735)
(-0.0016530392 0 0.00066726163)
(-0.0015965911 0 0.00047518288)
(-0.0015332709 0 0.00022393152)
(-0.001463989 0 -9.2838419e-05)
(-0.001389996 0 -0.00047741901)
(-0.0013126787 0 -0.00092675537)
(-0.0012334189 0 -0.0014318768)
(-0.0011534694 0 -0.0019782164)
(-0.0010740435 0 -0.0025465636)
(-0.0009962137 0 -0.0031157576)
(-0.00092100081 0 -0.0036639036)
(-0.00084919058 0 -0.0041719523)
(-0.00078151244 0 -0.004623812)
(-0.00071827725 0 -0.0050089918)
(-0.00065969539 0 -0.0053201714)
(-0.00060552665 0 -0.0055545063)
(-0.00055559713 0 -0.0057093442)
(-0.00050926904 0 -0.0057831758)
(-0.00046586233 0 -0.0057717718)
(-0.00042453623 0 -0.0056700561)
(-0.00038451403 0 -0.0054712122)
(-0.00034457958 0 -0.0051644603)
(-0.00030253233 0 -0.0047260512)
(-0.00025639929 0 -0.0041339064)
(-0.00020181183 0 -0.0033332477)
(-0.00013533654 0 -0.0022650006)
(-4.8861028e-05 0 -0.00081729474)
(-0.0018896905 0 0.00125135)
(-0.0018895715 0 0.0012527865)
(-0.0018894011 0 0.0012544846)
(-0.001889163 0 0.001256474)
(-0.0018888337 0 0.001258794)
(-0.0018883817 0 0.0012614868)
(-0.0018877648 0 0.0012645911)
(-0.0018869259 0 0.0012681425)
(-0.0018857899 0 0.0012721618)
(-0.0018842566 0 0.0012766483)
(-0.0018821949 0 0.001281561)
(-0.0018794321 0 0.0012867977)
(-0.0018757454 0 0.0012921591)
(-0.0018708475 0 0.0012973022)
(-0.0018643743 0 0.0013016715)
(-0.0018558718 0 0.0013044013)
(-0.0018447868 0 0.0013041702)
(-0.001830466 0 0.001299026)
(-0.0018121858 0 0.0012857063)
(-0.0017891097 0 0.0012602605)
(-0.0017603908 0 0.0012173978)
(-0.0017252578 0 0.0011503033)
(-0.0016831356 0 0.0010503915)
(-0.0016337121 0 0.00090856018)
(-0.0015771155 0 0.00071532922)
(-0.0015139567 0 0.00046206006)
(-0.0014452038 0 0.00014245983)
(-0.0013721287 0 -0.00024565509)
(-0.0012960875 0 -0.00069918592)
(-0.0012183783 0 -0.0012092346)
(-0.0011401419 0 -0.0017613572)
(-0.0010624749 0 -0.0023365869)
(-0.00098635026 0 -0.0029140116)
(-0.00091270398 0 -0.0034718787)
(-0.0008422793 0 -0.0039910743)
(-0.00077577636 0 -0.0044553219)
(-0.00071351873 0 -0.0048537665)
(-0.00065572549 0 -0.0051786849)
(-0.00060219828 0 -0.0054267819)
(-0.00055277274 0 -0.0055950931)
(-0.00050685129 0 -0.0056818779)
(-0.00046377986 0 -0.0056828825)
(-0.00042273308 0 -0.0055929569)
(-0.00038293282 0 -0.005405172)
(-0.00034315615 0 -0.0051084859)
(-0.00030128207 0 -0.0046799205)
(-0.00025525092 0 -0.0040962496)
(-0.00020087815 0 -0.0033045533)
(-0.00013454601 0 -0.0022446448)
(-4.8333207e-05 0 -0.00080701678)
(-0.0018751357 0 0.0014679084)
(-0.0018749981 0 0.001469507)
(-0.0018748051 0 0.0014713955)
(-0.0018745391 0 0.0014736125)
(-0.0018741753 0 0.0014762063)
(-0.0018736806 0 0.0014792273)
(-0.0018730107 0 0.0014827252)
(-0.0018721065 0 0.0014867444)
(-0.0018708898 0 0.0014913173)
(-0.0018692571 0 0.0014964547)
(-0.0018670727 0 0.0015021299)
(-0.001864159 0 0.0015082546)
(-0.0018602862 0 0.0015146483)
(-0.0018551595 0 0.0015209871)
(-0.0018484057 0 0.0015267338)
(-0.0018395615 0 0.0015310369)
(-0.0018280655 0 0.0015325779)
(-0.0018133048 0 0.0015289611)
(-0.0017945266 0 0.0015172423)
(-0.0017708874 0 0.0014933177)
(-0.0017415649 0 0.0014517772)
(-0.0017058342 0 0.0013856709)
(-0.001663157 0 0.0012864263)
(-0.0016133644 0 0.0011439372)
(-0.0015566354 0 0.00094926487)
(-0.0014936722 0 0.00069370112)
(-0.0014254971 0 0.00037107142)
(-0.0013533984 0 -2.0668491e-05)
(-0.0012786947 0 -0.00047835577)
(-0.0012025959 0 -0.00099315296)
(-0.0011261285 0 -0.001550718)
(-0.0010502726 0 -0.0021323389)
(-0.0009759046 0 -0.0027173767)
(-0.00090387579 0 -0.0032842538)
(-0.00083488788 0 -0.0038138324)
(-0.00076961133 0 -0.0042897011)
(-0.00070838138 0 -0.0047006861)
(-0.00065142388 0 -0.0050386852)
(-0.00059858165 0 -0.0052999822)
(-0.00054969927 0 -0.0054812909)
(-0.00050422009 0 -0.0055806496)
(-0.00046151285 0 -0.0055937401)
(-0.00042077113 0 -0.0055153406)
(-0.00038121539 0 -0.0053384088)
(-0.00034162024 0 -0.0050516778)
(-0.00029993433 0 -0.0046328314)
(-0.00025402909 0 -0.0040577217)
(-0.00019988159 0 -0.0032750193)
(-0.00013372229 0 -0.0022237643)
(-4.7812627e-05 0 -0.00079679955)
(-0.0018599044 0 0.0016797419)
(-0.0018597459 0 0.001681511)
(-0.0018595272 0 0.001683603)
(-0.0018592297 0 0.0016860613)
(-0.0018588277 0 0.001688939)
(-0.0018582861 0 0.0016922948)
(-0.0018575589 0 0.0016961857)
(-0.0018565842 0 0.0017006675)
(-0.0018552809 0 0.0017057847)
(-0.0018535414 0 0.0017115621)
(-0.0018512251 0 0.0017179887)
(-0.0018481483 0 0.0017249945)
(-0.0018440741 0 0.0017324176)
(-0.0018386992 0 0.0017399532)
(-0.0018316403 0 0.0017470875)
(-0.0018224253 0 0.0017529799)
(-0.0018105357 0 0.0017559095)
(-0.001795332 0 0.0017535933)
(-0.0017760194 0 0.0017432631)
(-0.0017517826 0 0.0017207062)
(-0.0017218227 0 0.0016803436)
(-0.0016854563 0 0.0016150381)
(-0.0016422121 0 0.0015163114)
(-0.0015920311 0 0.0013733776)
(-0.001535191 0 0.0011769611)
(-0.0014724642 0 0.00091881862)
(-0.0014049196 0 0.00059295485)
(-0.001333858 0 0.00019749485)
(-0.0012605536 0 -0.00026431506)
(-0.0011861239 0 -0.00078368942)
(-0.0011114765 0 -0.0013463759)
(-0.0010374792 0 -0.0019339149)
(-0.00096491286 0 -0.0025259787)
(-0.00089454665 0 -0.003101178)
(-0.00082704024 0 -0.0036404032)
(-0.00076303641 0 -0.0041271393)
(-0.00070287903 0 -0.0045499516)
(-0.00064680121 0 -0.0049003704)
(-0.00059468335 0 -0.0051742999)
(-0.00054638164 0 -0.0053681152)
(-0.00050137785 0 -0.0054796506)
(-0.00045906337 0 -0.0055044881)
(-0.00041865103 0 -0.0054373319)
(-0.00037936244 0 -0.0052710329)
(-0.00033997138 0 -0.0049941218)
(-0.00029848971 0 -0.0045848675)
(-0.00025273274 0 -0.0040183295)
(-0.0001988223 0 -0.0032446613)
(-0.00013286567 0 -0.0022023711)
(-4.7297977e-05 0 -0.00078662938)
(-0.0018440222 0 0.0018869443)
(-0.0018438411 0 0.0018888809)
(-0.0018435948 0 0.0018911718)
(-0.0018432635 0 0.0018938662)
(-0.0018428201 0 0.0018970245)
(-0.0018422277 0 0.0019007123)
(-0.0018414382 0 0.0019049963)
(-0.0018403869 0 0.0019099425)
(-0.0018389893 0 0.0019156065)
(-0.0018371335 0 0.0019220274)
(-0.001834674 0 0.0019292085)
(-0.0018314205 0 0.0019370969)
(-0.0018271281 0 0.0019455506)
(-0.0018214836 0 0.0019542906)
(-0.0018140937 0 0.0019628261)
(-0.0018045226 0 0.001970007)
(-0.0017922334 0 0.0019741551)
(-0.0017765283 0 0.0019732787)
(-0.0017566419 0 0.0019643403)
(-0.0017317687 0 0.0019430699)
(-0.0017011375 0 0.0019037467)
(-0.0016641159 0 0.0018390219)
(-0.0016203205 0 0.001740149)
(-0.0015697153 0 0.0015969711)
(-0.0015128104 0 0.0013984979)
(-0.0014503655 0 0.0011374885)
(-0.0013835085 0 0.00080819521)
(-0.0013135476 0 0.00040892907)
(-0.001241705 0 -5.6967134e-05)
(-0.0011690012 0 -0.00058075668)
(-0.0010962224 0 -0.0011482521)
(-0.0010241262 0 -0.0017412577)
(-0.00095340213 0 -0.0023397827)
(-0.000884738 0 -0.0029226474)
(-0.00081875342 0 -0.0034708044)
(-0.00075606373 0 -0.0039676778)
(-0.00069702077 0 -0.004401616)
(-0.00064186301 0 -0.0047638033)
(-0.00059050786 0 -0.0050497963)
(-0.00054282202 0 -0.0052556243)
(-0.00049832627 0 -0.0053789327)
(-0.00045643174 0 -0.0054151697)
(-0.00041637315 0 -0.0053589675)
(-0.00037737348 0 -0.0052030703)
(-0.000338209 0 -0.0049358361)
(-0.00029694733 0 -0.0045360376)
(-0.00025136144 0 -0.0039781227)
(-0.00019770101 0 -0.0032135224)
(-0.00013197554 0 -0.0021804812)
(-4.6788525e-05 0 -0.00077650065)
(-0.0018275061 0 0.0020896119)
(-0.0018273007 0 0.0020917158)
(-0.0018270245 0 0.0020942061)
(-0.0018266567 0 0.0020971372)
(-0.0018261685 0 0.002100576)
(-0.0018255214 0 0.0021045962)
(-0.0018246647 0 0.0021092727)
(-0.0018235309 0 0.0021146813)
(-0.0018220319 0 0.0021208899)
(-0.0018200513 0 0.0021279501)
(-0.0018174377 0 0.0021358806)
(-0.0018139939 0 0.0021446467)
(-0.0018094662 0 0.0021541254)
(-0.0018035305 0 0.0021640682)
(-0.0017958178 0 0.0021738018)
(-0.0017858858 0 0.0021821248)
(-0.0017731429 0 0.0021876344)
(-0.001756904 0 0.0021881554)
(-0.0017364073 0 0.0021805579)
(-0.0017108613 0 0.0021604804)
(-0.0016795275 0 0.0021220506)
(-0.0016418337 0 0.002057674)
(-0.001597473 0 0.0019583788)
(-0.0015465032 0 0.0018142222)
(-0.0014895382 0 0.0016138449)
(-0.001427427 0 0.0013496717)
(-0.001361318 0 0.0010167571)
(-0.001292523 0 0.0006136019)
(-0.0012222047 0 0.0001436587)
(-0.0011512815 0 -0.00038438811)
(-0.0010804149 0 -0.00095639386)
(-0.0010102574 0 -0.0015544293)
(-0.00094140993 0 -0.0021588788)
(-0.00087448162 0 -0.0027487751)
(-0.00081005301 0 -0.003305177)
(-0.00074871395 0 -0.0038114735)
(-0.00069082214 0 -0.0042558523)
(-0.00063662135 0 -0.0046291582)
(-0.00058606328 0 -0.0049266456)
(-0.00053902651 0 -0.0051439818)
(-0.00049506897 0 -0.0052786466)
(-0.00045362085 0 -0.0053259218)
(-0.00041393892 0 -0.0052803683)
(-0.00037524969 0 -0.0051346289)
(-0.00033633315 0 -0.0048769075)
(-0.00029530797 0 -0.0044864245)
(-0.00024991432 0 -0.0039371109)
(-0.00019651769 0 -0.003181617)
(-0.00013105215 0 -0.0021581066)
(-4.6283007e-05 0 -0.00076640066)
(-0.0018103751 0 0.0022878375)
(-0.0018101436 0 0.0022901082)
(-0.0018098354 0 0.0022927961)
(-0.0018094286 0 0.0022959618)
(-0.0018088925 0 0.002299679)
(-0.0018081868 0 0.0023040288)
(-0.0018072581 0 0.0023090952)
(-0.0018060359 0 0.0023149648)
(-0.0018044281 0 0.0023217157)
(-0.0018023135 0 0.0023294128)
(-0.0017995348 0 0.0023380874)
(-0.0017958874 0 0.0023477175)
(-0.0017911087 0 0.0023581914)
(-0.0017848776 0 0.0023692594)
(-0.0017768368 0 0.0023800687)
(-0.0017665018 0 0.002389638)
(-0.001753276 0 0.0023964717)
(-0.0017364707 0 0.0023983297)
(-0.0017153267 0 0.0023920105)
(-0.0016890702 0 0.0023730366)
(-0.001657003 0 0.0023353691)
(-0.0016186236 0 0.0022711056)
(-0.0015737033 0 0.0021711052)
(-0.0015224232 0 0.0020252006)
(-0.0014653889 0 0.0018230669)
(-0.0014036848 0 0.0015554345)
(-0.0013383875 0 0.0012187286)
(-0.0012708264 0 0.00081161659)
(-0.0012020946 0 0.00033767238)
(-0.001133005 0 -0.00019447972)
(-0.0010640906 0 -0.00077070244)
(-0.00099590461 0 -0.0013733484)
(-0.00092896366 0 -0.0019832068)
(-0.00086379957 0 -0.0025795299)
(-0.00080095675 0 -0.0031435118)
(-0.00074100013 0 -0.0036585421)
(-0.00068429312 0 -0.0041126909)
(-0.0006310828 0 -0.0044964779)
(-0.0005813548 0 -0.0048048939)
(-0.00053499801 0 -0.005033234)
(-0.00049160812 0 -0.0051788359)
(-0.00045063144 0 -0.0052367823)
(-0.00041134893 0 -0.0052015671)
(-0.00037299082 0 -0.0050657332)
(-0.0003343434 0 -0.0048173538)
(-0.00029357082 0 -0.0044360379)
(-0.00024839118 0 -0.0038953463)
(-0.00019527308 0 -0.0031489893)
(-0.00013009506 0 -0.0021352659)
(-4.5780797e-05 0 -0.00075632557)
(-0.0017926482 0 0.0024817126)
(-0.0017923885 0 0.0024841505)
(-0.001792046 0 0.0024870371)
(-0.001791597 0 0.0024904385)
(-0.0017910096 0 0.0024944347)
(-0.001790241 0 0.0024991147)
(-0.0017892352 0 0.0025045708)
(-0.0017879185 0 0.002510899)
(-0.0017861945 0 0.0025181898)
(-0.0017839367 0 0.0025265199)
(-0.0017809817 0 0.0025359354)
(-0.0017771167 0 0.0025464317)
(-0.0017720703 0 0.0025579187)
(-0.001765539 0 0.0025699736)
(-0.001757146 0 0.002581888)
(-0.0017463822 0 0.0025926697)
(-0.0017326448 0 0.0026007676)
(-0.001715239 0 0.0026039006)
(-0.0016934102 0 0.0025987868)
(-0.0016664073 0 0.0025808136)
(-0.0016335786 0 0.0025437771)
(-0.0015945087 0 0.0024793522)
(-0.0015490396 0 0.0023783422)
(-0.0014974692 0 0.0022303383)
(-0.0014404645 0 0.0020256616)
(-0.0013791943 0 0.0017547408)
(-0.0013147738 0 0.0014140816)
(-0.0012485157 0 0.0010029533)
(-0.0011814318 0 0.00052506296)
(-0.0011142259 0 -1.1044572e-05)
(-0.0010472988 0 -0.00059120119)
(-0.00098115322 0 -0.0011985457)
(-0.00091614242 0 -0.0018133698)
(-0.0008527603 0 -0.0024155219)
(-0.00079152073 0 -0.0029863981)
(-0.00073296721 0 -0.0035094264)
(-0.00067745056 0 -0.0039722792)
(-0.00062526049 0 -0.0043659142)
(-0.00057639179 0 -0.0046846973)
(-0.00053074358 0 -0.0049235305)
(-0.00048794836 0 -0.0050796418)
(-0.00044746709 0 -0.0051478812)
(-0.00040860526 0 -0.0051226811)
(-0.0003705985 0 -0.0049964885)
(-0.00033224028 0 -0.0047572625)
(-0.00029173685 0 -0.00438496)
(-0.00024679132 0 -0.0038528407)
(-0.00019396706 0 -0.003115654)
(-0.0001291044 0 -0.0021119708)
(-4.5280691e-05 0 -0.00074626387)
(-0.001774343 0 0.0026713262)
(-0.0017740534 0 0.0026739305)
(-0.0017736742 0 0.0026770146)
(-0.0017731806 0 0.0026806499)
(-0.0017725386 0 0.0026849234)
(-0.0017717029 0 0.0026899315)
(-0.0017706151 0 0.0026957753)
(-0.0017691973 0 0.0027025614)
(-0.0017673491 0 0.0027103899)
(-0.0017649383 0 0.0027193506)
(-0.0017617944 0 0.0027295016)
(-0.0017576965 0 0.0027408495)