/*--------------------------------*- C++ -*----------------------------------*\
  =========                 |
  \\      /  F ield         | OpenFOAM: The Open Source CFD Toolbox
   \\    /   O peration     | Website:  https://openfoam.org
    \\  /    A nd           | Version:  8
     \\/     M anipulation  |
\*---------------------------------------------------------------------------*/
FoamFile
{
    version     2.0;
    format      ascii;
    class       volScalarField;
    location    "0.0199971";
    object      Ma;
}
// * * * * * * * * * * * * * * * * * * * * * * * * * * * * * * * * * * * * * //

dimensions      [0 0 0 0 0 0 0];

internalField   nonuniform List<scalar> 
20000
(
0.65709591
0.76478787
0.83498081
0.89616129
0.95423074
1.0101978
1.0459245
1.0540402
1.0499152
1.0510386
1.0479968
1.0475501
1.0446785
1.0428369
1.0394365
1.0360829
1.0314555
1.0261416
1.0195425
1.0116818
1.0022062
0.99093916
0.9777417
0.96251863
0.94538686
0.92661642
0.90680373
0.88672283
0.86727568
0.84916181
0.83289537
0.81867934
0.8068509
0.79742463
0.78826546
0.77975055
0.77428758
0.77361337
0.77618123
0.7714095
0.75961487
0.75265771
0.75119554
0.75226191
0.75331161
0.75373217
0.75387521
0.7539168
0.75392669
0.75392944
0.66156093
0.7700981
0.84104993
0.90277208
0.96118179
1.0175734
1.0509349
1.0580754
1.0539089
1.0550798
1.0519899
1.0514827
1.048528
1.0465668
1.042998
1.0394504
1.0346315
1.0291352
1.0223511
1.0143141
1.0046964
0.99330004
0.97997169
0.96459523
0.94726424
0.92822751
0.90805875
0.88755992
0.86771316
0.84936073
0.83292059
0.81862078
0.8068257
0.79738006
0.78779907
0.7795317
0.77544391
0.77539715
0.77670944
0.76949271
0.75808912
0.75263433
0.75122621
0.75234631
0.75328627
0.75370891
0.75386283
0.75391131
0.75392551
0.75392918
0.66520718
0.77493813
0.84650795
0.90867102
0.96737858
1.0240707
1.0544547
1.0605563
1.0562052
1.0572723
1.0540779
1.0533367
1.0503421
1.0482446
1.0445544
1.0408781
1.0359757
1.0303778
1.0235251
1.0154048
1.0057193
0.9942546
0.98086268
0.96541405
0.94799243
0.9288352
0.90850473
0.88781352
0.86777025
0.84924366
0.83267975
0.81834573
0.8066199
0.79709144
0.78711754
0.77968807
0.77629392
0.77653603
0.77687479
0.76746445
0.75714974
0.75243166
0.75119193
0.75234543
0.75327428
0.75369724
0.75385671
0.7539095
0.75392503
0.75392908
0.66704449
0.77780579
0.85005904
0.9127052
0.97175449
1.0287034
1.0561918
1.0615291
1.0570055
1.0580835
1.0548199
1.0542179
1.050965
1.0488002
1.045039
1.0412687
1.0362843
1.0306092
1.0236992
1.0155072
1.0057642
0.99423637
0.98078828
0.96528094
0.94780131
0.9285828
0.90818799
0.88743199
0.86731811
0.84871871
0.83212108
0.81783483
0.80621378
0.79652329
0.78653935
0.78006095
0.77739444
0.77762648
0.77677772
0.76552417
0.75623665
0.75219335
0.75110486
0.75233905
0.75325867
0.75368812
0.75385265
0.75390813
0.7539247
0.75392901
0.66845494
0.78014787
0.85299135
0.91612125
0.97548951
1.0325517
1.0569701
1.0620288
1.0571444
1.0583656
1.0548543
1.0544098
1.0509504
1.0487316
1.0449242
1.0410854
1.0360494
1.0302827
1.0232877
1.0149877
1.0051485
0.99352096
0.97998508
0.96439809
0.94685484
0.92759131
0.90717358
0.88641812
0.86630777
0.84768865
0.83111875
0.81696951
0.80552074
0.79560981
0.78607152
0.78051951
0.77835322
0.77842788
0.77630138
0.76378329
0.75540865
0.75191488
0.75098157
0.7523216
0.7532449
0.7536803
0.7538495
0.75390717
0.75392448
0.75392896
0.669288
0.78199669
0.85542556
0.91907355
0.97877514
1.0358128
1.0570606
1.0615337
1.0567722
1.0579483
1.0544348
1.0536735
1.0504115
1.0481174
1.0442453
1.0403061
1.0351771
1.0292615
1.0221205
1.0136518
1.0036556
0.99187041
0.97819463
0.96248995
0.94486511
0.92556807
0.90517258
0.88449598
0.86451066
0.84605149
0.82967258
0.81578159
0.80453793
0.79448135
0.78568735
0.78097076
0.77915182
0.77900365
0.77508193
0.7622024
0.754569
0.75160659
0.75085331
0.75230157
0.75323237
0.75367259
0.75384643
0.75390622
0.75392427
0.75392892
0.66991854
0.78337905
0.85734749
0.92149167
0.98156513
1.0384394
1.0563999
1.0606663
1.0557694
1.0569374
1.0533485
1.0525894
1.0491929
1.046795
1.0428239
1.0387407
1.03348
1.0273965
1.0200999
1.0114499
1.0012765
0.98930949
0.97546736
0.95962416
0.94191188
0.92260203
0.90228571
0.88178256
0.8620428
0.84386973
0.82780778
0.814277
0.80328835
0.79323329
0.78530755
0.78132215
0.77972227
0.77918394
0.77348114
0.76074157
0.75371629
0.75123899
0.75072977
0.75228084
0.75322226
0.75366577
0.75384336
0.75390524
0.75392406
0.75392889
0.66985887
0.78412338
0.8586698
0.9233288
0.98382397
1.0403339
1.0550623
1.0591663
1.0541575
1.0553286
1.0516616
1.050834
1.0473742
1.0448716
1.0408029
1.0365726
1.0311751
1.0249101
1.0174329
1.0085733
0.99818847
0.98600227
0.97195496
0.95593969
0.9381192
0.91879933
0.8985971
0.87833854
0.85894984
0.84118721
0.8255648
0.81248405
0.80180206
0.79194405
0.78487943
0.78147099
0.7800398
0.77911922
0.77162303
0.75933284
0.75285848
0.75074099
0.75062901
0.75226288
0.75321536
0.75366123
0.75384087
0.75390427
0.75392385
0.75392887
0.66961467
0.78458352
0.85969517
0.92486596
0.98579752
1.041726
1.0532699
1.0572495
1.0521337
1.0532854
1.0495358
1.0486379
1.0450906
1.0424684
1.0382924
1.0339038
1.0283591
1.0219001
1.0142288
1.0051407
0.99451829
0.98208265
0.96779704
0.95157931
0.9336298
0.91429843
0.89423651
0.87427979
0.85532438
0.83806962
0.82298673
0.8104308
0.80010846
0.79065782
0.78438483
0.78140221
0.78010199
0.77892254
0.76965668
0.75796788
0.75201979
0.75017983
0.75054579
0.75225045
0.7532124
0.75365951
0.75383966
0.75390363
0.75392364
0.75392884
0.6690261
0.78478259
0.86042731
0.92611515
0.98751393
1.042573
1.0510379
1.0549627
1.0497374
1.0508715
1.0470362
1.0460593
1.042428
1.0396802
1.0353945
1.0308404
1.02514
1.0184746
1.0105884
1.0012474
0.99035785
0.97764112
0.96308425
0.94663472
0.92853642
0.90919152
0.88929218
0.86968633
0.85123584
0.83457435
0.82011783
0.80815179
0.7982427
0.78939429
0.783836
0.78121277
0.77999295
0.77847231
0.76761568
0.75663038
0.75121458
0.7496041
0.75048819
0.75224455
0.7532136
0.75366033
0.75383982
0.75390356
0.75392352
0.75392883
0.66836657
0.784812
0.86098324
0.92716553
0.98906953
1.0429456
1.0484704
1.0523749
1.0470451
1.0481474
1.04423
1.0431664
1.0394505
1.0365708
1.0321714
1.0274438
1.021577
1.0146908
1.0065722
0.99695761
0.98577559
0.97275097
0.95789525
0.94119013
0.92292856
0.90357189
0.88385756
0.86464584
0.84675999
0.83076154
0.81700231
0.8056844
0.79625838
0.78814532
0.78324036
0.78095132
0.77977695
0.77751425
0.7655138
0.75532155
0.7504523
0.74906061
0.75044327
0.7522462
0.75321903
0.7536634
0.75384102
0.7539039
0.75392357
0.75392882
0.66748596
0.78466363
0.86136939
0.92803118
0.99046375
1.0428056
1.0455457
1.049513
1.0440862
1.0451552
1.0411612
1.0400068
1.0362074
1.0331893
1.0286714
1.0237609
1.0177157
1.0105937
1.0022214
0.99231097
0.98081142
0.96745382
0.95227481
0.93529512
0.91686203
0.89750172
0.87799915
0.85922462
0.84195829
0.82668361
0.81368174
0.80306672
0.79421088
0.7868951
0.78259091
0.78058219
0.7794285
0.775985
0.76336723
0.75404338
0.74975103
0.74856635
0.75041823
0.75225607
0.7532284
0.75366834
0.75384302
0.75390454
0.75392371
0.75392882
0.66651243
0.78442795
0.86167001
0.92880298
0.9917653
1.0421133
1.0424018
1.0464332
1.0409146
1.0419405
1.0378715
1.0366176
1.0327333
1.029568
1.0249245
1.0198193
1.0135811
1.0062067
0.99756257
0.98733713
0.97549828
0.96178636
0.94626429
0.92899705
0.91039155
0.89104303
0.87178375
0.85348996
0.83689278
0.82239291
0.8101973
0.80033465
0.79212995
0.78563081
0.78186988
0.78004192
0.77891277
0.77409027
0.76121284
0.75278402
0.74911275
0.74815669
0.75041549
0.75227373
0.75324126
0.75367478
0.75384558
0.75390538
0.7539239
0.75392882
0.66543762
0.78410436
0.86189861
0.9294995
0.99295196
1.0409302
1.0391193
1.0431596
1.0375524
1.0385287
1.034385
1.033023
1.0290497
1.0257271
1.0209482
1.0156355
1.009189
1.0015473
0.99261192
0.98205257
0.96985359
0.95576776
0.93988617
0.92232374
0.90355241
0.88423922
0.86526122
0.84749477
0.83161459
0.81793464
0.80658638
0.79752034
0.79003224
0.78432995
0.78105785
0.779355
0.77815045
0.77186815
0.75911046
0.75151925
0.74849197
0.74785932
0.7504312
0.75229838
0.75325714
0.75368237
0.75384853
0.75390632
0.75392412
0.75392883
0.66436036
0.7837783
0.86213572
0.93018614
0.99403832
1.039288
1.0356603
1.0397154
1.0340225
1.0349349
1.0307162
1.0292346
1.0251682
1.0216762
1.0167516
1.0112178
1.0045488
0.99662502
0.98738181
0.97647169
0.96389371
0.94941698
0.93316347
0.91530431
0.89638163
0.87713542
0.85848295
0.84129273
0.82617519
0.81335357
0.8028854
0.79465215
0.78792425
0.78296808
0.78013236
0.77853339
0.77713831
0.76949673
0.75710816
0.75024392
0.74784747
0.74765908
0.75046152
0.75232929
0.75327557
0.75369081
0.7538517
0.75390731
0.75392435
0.75392885
0.66322941
0.78339223
0.86234579
0.93086233
0.99494684
1.0371548
1.032038
1.0360941
1.0303218
1.0311621
1.02687
1.0252583
1.0210927
1.0174194
1.0123379
1.0065721
0.99966659
0.99144775
0.98187956
0.97060134
0.95762579
0.94274256
0.92610819
0.90795664
0.88890497
0.86976562
0.85148972
0.83492808
0.82061825
0.80868798
0.79912578
0.79175356
0.78580916
0.78152833
0.77907291
0.77759364
0.77584871
0.76708065
0.75522813
0.74903215
0.74712806
0.74752172
0.75050414
0.75236598
0.75329612
0.75369983
0.75385499
0.75390831
0.75392458
0.75392887
0.66205212
0.78296774
0.86255111
0.93155532
0.99564164
1.034524
1.0282646
1.0323127
1.0264627
1.0272183
1.0228496
1.0210942
1.0168235
1.0129575
1.0077107
1.0017023
0.99454816
0.98602136
0.97611136
0.96444807
0.95105739
0.93575432
0.91873441
0.90030152
0.88115156
0.8621672
0.84432518
0.82844795
0.81498926
0.80397598
0.79533754
0.7888451
0.78368918
0.78001133
0.77788026
0.77652456
0.7742665
0.76466197
0.75348101
0.74789297
0.7463381
0.74744499
0.75055785
0.75240818
0.75331835
0.75370919
0.7538583
0.7539093
0.7539248
0.75392889
0.66085109
0.78250708
0.86275404
0.93230272
0.99608539
1.0313799
1.024344
1.0283667
1.0224392
1.0230965
1.0186498
1.0167399
1.0123604
1.008294
1.002874
0.99661473
0.98919836
0.98034937
0.97007927
0.95801306
0.94418992
0.92845548
0.91104951
0.89235309
0.87314387
0.85437097
0.83702668
0.82189312
0.80932673
0.79924883
0.79154537
0.78594284
0.78156471
0.778426
0.77656869
0.77530436
0.77238986
0.76223915
0.75185569
0.74686237
0.745577
0.74742593
0.7506256
0.75245549
0.75334176
0.7537187
0.75386159
0.75391025
0.75392501
0.75392891
0.65960757
0.78199537
0.86292474
0.93310207
0.99620858
1.0277291
1.0202629
1.0242468
1.0182446
1.0187932
1.0142707
1.0121989
1.0077095
1.0034356
0.99783438
0.99131319
0.98361968
0.9744333
0.96378432
0.95129744
0.93702577
0.92085124
0.90306393
0.88412931
0.8649088
0.8464121
0.82963576
0.81530636
0.80366767
0.79453657
0.78777472
0.78306241
0.77943604
0.77678262
0.77515825
0.77392478
0.77033323
0.75980105
0.7503365
0.74595713
0.74490909
0.74748395
0.7507096
0.7525068
0.75336586
0.7537282
0.75386479
0.75391116
0.7539252
0.75392893
0.65831525
0.78142581
0.8630627
0.93398655
0.99595258
1.023786
1.0160137
1.0199509
1.0138823
1.0143157
1.0097226
1.0074819
1.0028795
0.99838921
0.99259514
0.9858003
0.97781243
0.96827174
0.95722408
0.94429839
0.92956316
0.91294254
0.8947841
0.87564448
0.85646984
0.83832244
0.82218975
0.80872251
0.79803722
0.78986269
0.7840501
0.78021665
0.77730106
0.77508565
0.77367448
0.77239297
0.76812643
0.75735595
0.74889861
0.74515184
0.74440552
0.74759421
0.75080593
0.75256073
0.75339025
0.75373758
0.75386788
0.75391201
0.75392537
0.75392894
0.65697113
0.78079737
0.86316055
0.93497282
0.99526434
1.0199644
1.0116133
1.0155
1.0093728
1.0096818
1.0050186
1.0025979
0.99787571
0.99315729
0.98715703
0.98007424
0.97177407
0.96186176
0.95039554
0.9370135
0.92180149
0.90473258
0.88621978
0.86691745
0.84785581
0.8301394
0.81472857
0.80217351
0.79245428
0.78525263
0.78040166
0.7774204
0.77516423
0.77334516
0.77214179
0.77074487
0.76581639
0.75494791
0.7475062
0.74443228
0.74402636
0.74773797
0.75091039
0.7526162
0.7534146
0.75374673
0.75387084
0.75391282
0.75392553
0.75392895
0.65561038
0.78013924
0.86323271
0.93609048
0.99414404
1.01571
1.0070896
1.0109142
1.0047285
1.0048982
1.0001619
0.99754787
0.99269687
0.98773813
0.98151666
0.97413217
0.96550058
0.95519837
0.9432932
0.92943752
0.91373719
0.89622175
0.87737851
0.85796563
0.83909459
0.82189839
0.80728524
0.79567877
0.78693016
0.78073407
0.77685624
0.77468408
0.77303342
0.77157815
0.77057445
0.7690523
0.76341751
0.75265243
0.74614501
0.74377794
0.74378826
0.74790371
0.75102018
0.75267239
0.75343868
0.75375559
0.75387365
0.75391356
0.75392568
0.75392896
0.65424942
0.77946022
0.86327331
0.93733657
0.99256758
1.0113028
1.0024365
1.0061864
0.99994387
0.99996015
0.99514798
0.99232782
0.98733907
0.9821278
0.97566994
0.96796878
0.95898649
0.94827574
0.93591144
0.92156567
0.90536809
0.88741309
0.86827203
0.84881201
0.83022008
0.81363783
0.79988932
0.7892527
0.7814894
0.77634646
0.77343251
0.77201708
0.77092336
0.76980467
0.76898701
0.76732854
0.76096062
0.75054613
0.74488045
0.74311365
0.74366065
0.7480847
0.75113337
0.75272873
0.75346229
0.7537641
0.75387629
0.75391425
0.75392581
0.75392897
0.65286662
0.77875465
0.86325847
0.93866735
0.99044911
1.0066479
0.99764605
1.0013093
0.9950132
0.99486224
0.9899726
0.98693351
0.98179762
0.97632178
0.96961152
0.96157894
0.95222552
0.94108657
0.92824267
0.91339106
0.89668995
0.8783084
0.85891196
0.83948048
0.82126594
0.80539054
0.79255842
0.78290691
0.77617913
0.77212441
0.7701349
0.769423
0.76884487
0.76804011
0.76739133
0.76555396
0.7585091
0.74865522
0.74370071
0.74237419
0.74361082
0.74827619
0.75124864
0.75278474
0.75348527
0.75377224
0.75387878
0.75391487
0.75392592
0.75392898
0.65147899
0.77804432
0.86321621
0.94007079
0.98778128
1.0019089
0.99271484
0.99627953
0.98993307
0.98960111
0.98463144
0.98136114
0.97606781
0.97031559
0.96333608
0.95495596
0.94521021
0.93362285
0.92027917
0.90490733
0.88770035
0.86891289
0.84931547
0.83000134
0.81226974
0.79718594
0.78530577
0.77667265
0.77106148
0.76809177
0.76696614
0.76691005
0.76680625
0.76629935
0.76579479
0.76365753
0.75611939
0.74694838
0.74257958
0.74160798
0.74366535
0.74847491
0.75136526
0.75284003
0.75350748
0.75377996
0.7538811
0.75391545
0.75392602
0.75392898
0.65001297
0.77727124
0.8631266
0.94147213
0.98451564
0.9969582
0.98764189
0.99109573
0.98470017
0.98417344
0.97912076
0.97560713
0.97014514
0.96410426
0.95683734
0.94809253
0.93793188
0.92587495
0.91201145
0.8961064
0.87839584
0.85923206
0.83950136
0.820406
0.80326497
0.78904183
0.77814502
0.77060882
0.76618266
0.76425282
0.76392462
0.7644903
0.76480758
0.76459231
0.76419473
0.76166608
0.75379385
0.74539122
0.74157608
0.7409532
0.7438725
0.74868202
0.75148282
0.75289418
0.75352879
0.75378725
0.75388326
0.75391597
0.7539261
0.75392898
0.64850027
0.77648608
0.86304378
0.94281547
0.98069334
0.99185278
0.98242564
0.98575407
0.97931239
0.97857588
0.97343736
0.96966814
0.96402489
0.95768212
0.95010786
0.94097952
0.93038064
0.91783255
0.90342984
0.88698111
0.86877545
0.84927643
0.8294951
0.81073052
0.79428248
0.78097106
0.77111442
0.76478678
0.76156667
0.76057981
0.76102243
0.76218115
0.76285874
0.76292423
0.76258889
0.75966463
0.75151685
0.74396175
0.74071248
0.74039888
0.74416345
0.74889992
0.75160013
0.75294675
0.75354911
0.75379411
0.75388526
0.75391644
0.75392617
0.75392898
0.64690429
0.77566442
0.86298937
0.9440257
0.97657266
0.98657354
0.97705774
0.98025272
0.97376827
0.97280689
0.9675779
0.96354016
0.95770089
0.9510418
0.94313862
0.93360682
0.92254527
0.90948382
0.8945231
0.87752331
0.8588387
0.83905918
0.81932507
0.80100926
0.78534327
0.77298831
0.76428176
0.75925397
0.75719411
0.75705478
0.75827542
0.75998475
0.76098135
0.76129089
0.76097271
0.75763071
0.7492887
0.74264349
0.73999538
0.73999517
0.74449885
0.7491234
0.75171562
0.75299737
0.7535684
0.75380054
0.75388711
0.75391687
0.75392623
0.75392898
0.64520012
0.77481158
0.86299164
0.94500912
0.9719873
0.98114999
0.97154957
0.97459354
0.96806689
0.96686335
0.96153676
0.95721716
0.95116533
0.94417424
0.93591915
0.92596251
0.91441336
0.90081602
0.88527994
0.86772628
0.84858932
0.82860014
0.80902573
0.79127594
0.77646315
0.76513646
0.75772322
0.75403096
0.75301789
0.75370735
0.75569102
0.75789832
0.75919183
0.75968878
0.7593355
0.75555884
0.74714582
0.74142552
0.73942009
0.73975864
0.74485875
0.74934749
0.75182803
0.75304579
0.75358664
0.75380655
0.75388882
0.75391726
0.75392628
0.75392897
0.64340666
0.77394707
0.86308639
0.94570775
0.96704887
0.9755749
0.96589264
0.9687663
0.96220008
0.96073828
0.95530692
0.9506916
0.94440863
0.93706876
0.92843767
0.91803378
0.90597105
0.8918148
0.87568795
0.85758362
0.83803394
0.81792329
0.79863207
0.78155764
0.76765705
0.75749085
0.75149111
0.74909219
0.74902443
0.75055892
0.75327108
0.75592657
0.75748672
0.75811776
0.75766376
0.7534294
0.74515214
0.74032636
0.7388898
0.73965857
0.74523139
0.74956847
0.75193648
0.75309189
0.75360384
0.75381216
0.7538904
0.7539176
0.75392632
0.75392896
0.64152256
0.77304589
0.8632568
0.94602727
0.96176762
0.96983795
0.96007978
0.96276496
0.95616259
0.95442699
0.94888062
0.94395424
0.93741948
0.9297135
0.92068122
0.90980606
0.89720275
0.88246486
0.86573501
0.84709216
0.82718544
0.80705949
0.78818015
0.77187731
0.75896381
0.75013637
0.74561185
0.7443843
0.7452447
0.74761658
0.75101993
0.75407457
0.75586114
0.75658012
0.75595277
0.75125708
0.74335683
0.73921904
0.73831868
0.73963869
0.74560718
0.74978363
0.7520405
0.75313565
0.75362
0.75381738
0.75389185
0.7539179
0.75392634
0.75392895
0.63955861
0.77211898
0.86350371
0.94589362
0.95617509
0.9639429
0.95411232
0.95659098
0.94994956
0.94792133
0.94224643
0.93699353
0.93018569
0.92209578
0.91263553
0.90126271
0.8880908
0.87274932
0.85540906
0.83625136
0.81606163
0.79604211
0.77770116
0.76225267
0.75045983
0.74313582
0.74006008
0.73989527
0.74169807
0.74488132
0.74893902
0.75234207
0.75431096
0.75507894
0.75421467
0.7490951
0.74173965
0.73819177
0.73769613
0.73974132
0.7459784
0.74999141
0.75213994
0.75317707
0.75363517
0.75382223
0.75389317
0.75391817
0.75392636
0.75392893
0.63755725
0.77118425
0.86381993
0.94510397
0.95030046
0.95788845
0.94798551
0.95023276
0.94354879
0.94120735
0.9353912
0.92979822
0.92269564
0.91420167
0.90428361
0.89238426
0.87861567
0.86265102
0.84470029
0.82506656
0.80468784
0.78490794
0.76722381
0.75271269
0.74224397
0.73652591
0.73477827
0.73565945
0.73838939
0.74235386
0.74702984
0.75072794
0.75283393
0.75362012
0.75250129
0.74698859
0.74026793
0.73727856
0.73714087
0.74004317
0.74633826
0.75019195
0.75223489
0.7532162
0.75364937
0.75382672
0.75389438
0.75391841
0.75392637
0.75392892
0.63558616
0.77030277
0.86419099
0.94350488
0.94422257
0.95165901
0.94168176
0.94366884
0.93694531
0.93427441
0.92830529
0.9223589
0.91493616
0.90601374
0.89560469
0.88314851
0.86875636
0.85215275
0.83360144
0.81354839
0.79309445
0.77369209
0.75677287
0.74332444
0.7343947
0.73029212
0.72975107
0.73169627
0.73531992
0.74003404
0.74528888
0.74922727
0.75142786
0.75221042
0.75089207
0.74494711
0.73893939
0.73648709
0.7366352
0.74048606
0.74669312
0.75038634
0.75232538
0.75325305
0.75366262
0.75383088
0.75389549
0.75391862
0.75392637
0.7539289
0.63368855
0.76951316
0.8645536
0.94121663
0.93788209
0.94523402
0.93518884
0.93689313
0.9301334
0.92711919
0.92098073
0.91466283
0.90688864
0.89750906
0.88657441
0.8735316
0.85849155
0.84123896
0.82211019
0.80171553
0.78131749
0.76242971
0.74637744
0.73419178
0.72696306
0.72437882
0.72501187
0.72801028
0.73249089
0.73792512
0.74370962
0.74783413
0.75008969
0.7508561
0.74926261
0.74298116
0.73775644
0.73584952
0.73627459
0.74100355
0.74704841
0.7505743
0.75241124
0.75328762
0.75367495
0.75383473
0.75389649
0.7539188
0.75392637
0.75392888
0.63184018
0.76881118
0.8647544
0.9381597
0.93130389
0.93861268
0.9285102
0.92991066
0.92310999
0.91973435
0.91340175
0.90668808
0.89852697
0.88866041
0.87716668
0.86350914
0.84780016
0.82989617
0.81022949
0.78959276
0.76939381
0.75115283
0.73608767
0.72541186
0.71995965
0.71875664
0.72058532
0.72460046
0.72990171
0.73603134
0.74227971
0.74654011
0.7488088
0.74954643
0.74750583
0.74112534
0.73673522
0.73535158
0.7361027
0.74155426
0.74739938
0.75075456
0.75249224
0.75331994
0.75368642
0.75383828
0.7538974
0.75391896
0.75392636
0.75392887
0.6300145
0.76819495
0.86478528
0.93431964
0.924526
0.93180085
0.92164868
0.92271666
0.91585998
0.91209653
0.90553975
0.89840446
0.88982136
0.87943953
0.86735534
0.85305677
0.83666195
0.81811476
0.79797003
0.77721252
0.75736151
0.73989377
0.72599702
0.71706126
0.71334248
0.71344825
0.71647994
0.72146471
0.72755122
0.73435384
0.74098789
0.74533649
0.74757067
0.74825372
0.7457787
0.73943535
0.73575413
0.73491372
0.7360492
0.74211972
0.74774075
0.75092587
0.75256825
0.75335008
0.75369706
0.75384156
0.75389823
0.75391909
0.75392634
0.75392885
0.62833488
0.76775846
0.86464434
0.92965151
0.91755019
0.92477835
0.91458144
0.91527849
0.90835036
0.90416939
0.8973599
0.88978084
0.88074367
0.86981969
0.85711482
0.84215016
0.82505776
0.80588972
0.78534962
0.76461146
0.74525774
0.72869106
0.71622106
0.70918064
0.70706052
0.70848985
0.71269323
0.71859818
0.72543593
0.73288394
0.739823
0.74421145
0.74636813
0.74696272
0.74398161
0.73793505
0.73484954
0.7344437
0.73606239
0.74268647
0.74806789
0.75108732
0.75263929
0.75337812
0.75370694
0.75384458
0.75389897
0.75391921
0.75392632
0.75392882
0.62674925
0.76757521
0.86418848
0.92408347
0.91035404
0.91750013
0.90726349
0.90754952
0.90053987
0.89591966
0.88883246
0.88079169
0.87126902
0.85977498
0.84641903
0.83076462
0.81297099
0.79322287
0.77239489
0.75182988
0.73312278
0.71762068
0.7068626
0.70175606
0.70111565
0.70389916
0.70922153
0.71599608
0.72355261
0.73161012
0.73877263
0.7431523
0.74520481
0.74566303
0.74220151
0.73659229
0.73402883
0.73397612
0.73617458
0.74324172
0.74837702
0.75123852
0.75270555
0.75340422
0.75371611
0.75384738
0.75389964
0.7539193
0.75392629
0.7539288
0.62517461
0.7676027
0.86325062
0.91762372
0.90289108
0.90991704
0.89965267
0.89949609
0.89240042
0.88732733
0.8799369
0.87141496
0.86137242
0.8492777
0.83523991
0.81887518
0.80038833
0.78012337
0.75913858
0.73890791
0.72099805
0.70680046
0.69799408
0.69472862
0.69555176
0.69967377
0.7060571
0.71365141
0.72189684
0.73051942
0.73782281
0.7421509
0.74409042
0.74434614
0.74046535
0.73537672
0.73326496
0.73350474
0.73645819
0.74376996
0.74866623
0.75137975
0.75276734
0.75342851
0.75372461
0.75384995
0.75390025
0.75391938
0.75392626
0.75392878
0.62350784
0.76783133
0.86166631
0.91073274
0.89513047
0.90200299
0.89173583
0.89111038
0.88392043
0.8783795
0.87065386
0.86162557
0.85102489
0.83829656
0.82354717
0.8064577
0.7873022
0.76660962
0.74561986
0.72588883
0.70894018
0.69635982
0.68964097
0.688074
0.69039791
0.69581041
0.70319147
0.71155609
0.72046068
0.72960101
0.73696357
0.74120434
0.74302127
0.74301763
0.73878437
0.73428671
0.7326015
0.73309904
0.7369098
0.74426187
0.74893667
0.75151197
0.75282507
0.75345113
0.75373249
0.75385231
0.75390079
0.75391944
0.75392623
0.75392876
0.62171507
0.76829869
0.8593322
0.90388436
0.88709819
0.8937677
0.88351639
0.88239106
0.87508654
0.86905584
0.86095615
0.85139164
0.84019251
0.82679712
0.81130956
0.79349066
0.77371228
0.75270848
0.73188057
0.71281978
0.69705103
0.68640399
0.68176463
0.68182367
0.68566069
0.69230022
0.70061329
0.70969788
0.71922488
0.72884394
0.73618516
0.74030577
0.74198526
0.74168634
0.73717098
0.73334296
0.7320784
0.73286152
0.73747871
0.74472551
0.74919241
0.7516363
0.75287904
0.75347216
0.75373978
0.75385447
0.75390128
0.75391949
0.75392619
0.75392874
0.61976487
0.76903934
0.85619273
0.89625661
0.87882085
0.88520636
0.8749762
0.87331542
0.86587012
0.85932431
0.85080812
0.84067555
0.82883776
0.81474301
0.79849608
0.77995726
0.75962786
0.73845592
0.71796763
0.69975745
0.68547378
0.67699835
0.67431412
0.67602315
0.68133751
0.68913306
0.69831098
0.70806404
0.71816307
0.7282354
0.73547728
0.73944195
0.74097013
0.74034041
0.73566651
0.73247495
0.7316844
0.73277782
0.73810845
0.74517663
0.74943627
0.75175334
0.75292944
0.7534917
0.75374651
0.75385645
0.75390171
0.75391952
0.75392615
0.75392872
0.61764795
0.77000819
0.85216838
0.88816745
0.87025357
0.87628083
0.86607821
0.86384801
0.85623298
0.84914628
0.84016879
0.82943605
0.8169209
0.80209668
0.78507728
0.76584697
0.74506754
0.7238937
0.70393349
0.68678504
0.67434501
0.66814459
0.66729268
0.67069453
0.67742
0.68629447
0.69626937
0.70664348
0.7172687
0.72775134
0.73482708
0.7385982
0.73996346
0.73894713
0.73431909
0.73169978
0.73136351
0.73277566
0.73876866
0.74561646
0.74966855
0.75186322
0.75297634
0.75350977
0.75375271
0.75385826
0.7539021
0.75391953
0.75392611
0.7539287
0.61532277
0.77108134
0.84716029
0.87961563
0.86136771
0.86695453
0.85678753
0.85394995
0.84613266
0.83847912
0.82899494
0.81762995
0.80440072
0.78881982
0.77102663
0.75115838
0.73006047
0.70906982
0.68983956
0.674038
0.66377534
0.65978832
0.66075667
0.66583692
0.67389751
0.68376916
0.6944715
0.70542731
0.71659214
0.72735975
0.73422073
0.73775923
0.73896017
0.73752242
0.73313724
0.73102677
0.73102804
0.73282873
0.73944502
0.74604158
0.74988843
0.75196587
0.75301984
0.75352647
0.75375842
0.75385991
0.75390245
0.75391954
0.75392606
0.75392868
0.61290113
0.77219059
0.8411628
0.87060392
0.85212281
0.8571874
0.84706152
0.84357718
0.83552236
0.82727944
0.81724265
0.8052133
0.79123375
0.77487444
0.75632315
0.73590052
0.71464563
0.69403856
0.67576009
0.66167878
0.65381325
0.65190479
0.65474307
0.66144459
0.67075464
0.68153929
0.69289968
0.70440163
0.71618088
0.72703656
0.7336437
0.73691688
0.73796291
0.7361204
0.73208349
0.73038448
0.73066127
0.73295552
0.74012519
0.74644745
0.7500948
0.7520612
0.75306002
0.75354185
0.75376366
0.75386142
0.75390275
0.75391953
0.75392602
0.75392866
0.61035124
0.77306252
0.83421361
0.86106429
0.84248507
0.84692985
0.83685277
0.83269038
0.82435781
0.81550346
0.80486722
0.79213777
0.77737389
0.76022302
0.74095352
0.72009438
0.69887128
0.67886712
0.66181453
0.64985445
0.6444356
0.64453506
0.64926416
0.65750652
0.6679736
0.6795863
0.69154262
0.7035603
0.71598745
0.72676829
0.73308375
0.73607623
0.7369789
0.73476496
0.73112193
0.72977246
0.73028948
0.73320023
0.7407938
0.74682946
0.75028671
0.75214924
0.75309704
0.75355601
0.75376847
0.75386279
0.75390302
0.75391952
0.75392597
0.75392864
0.60774165
0.77361381
0.8263773
0.85098155
0.83240546
0.83614267
0.82612061
0.82125139
0.81259564
0.80310432
0.79181766
0.77834988
0.76277156
0.74483232
0.72491538
0.70377314
0.68279381
0.66363623
0.64817332
0.63866682
0.63559226
0.63773695
0.6443163
0.6540064
0.66553209
0.67788705
0.69039138
0.70294367
0.71592425
0.72653509
0.73253067
0.73526888
0.73601034
0.73346357
0.73026105
0.72920395
0.72993808
0.73356288
0.74143488
0.74718367
0.75046364
0.75223026
0.75313112
0.75356905
0.7537729
0.75386404
0.75390325
0.7539195
0.75392592
0.75392863
0.60477504
0.77381175
0.81770024
0.84032316
0.8218468
0.82479777
0.81482198
0.80922137
0.80018558
0.79002496
0.77803341
0.76378859
0.74737656
0.72867587
0.70821988
0.68698324
0.6664831
0.6484537
0.63502086
0.62813997
0.62729621
0.63154249
0.63989007
0.65092469
0.66340674
0.67641734
0.68942813
0.70257781
0.71596428
0.72632247
0.73197426
0.73444952
0.73504363
0.73221351
0.72942089
0.72872397
0.72967315
0.73403587
0.74203316
0.74750813
0.75062601
0.75230479
0.75316254
0.75358108
0.75377697
0.75386517
0.75390345
0.75391947
0.75392587
0.75392861
0.60129139
0.77358277
0.80822532
0.82908071
0.81078935
0.81286551
0.80290813
0.79654315
0.78706099
0.7761937
0.76344365
0.74838881
0.73114145
0.71173963
0.69089326
0.66978278
0.65002686
0.63348586
0.6225096
0.6182264
0.61962054
0.62595115
0.63596905
0.64823732
0.66157268
0.67515699
0.68862996
0.70239899
0.71610169
0.72611863
0.73143915
0.73368764
0.73405686
0.73102052
0.72869155
0.72837433
0.72955762
0.73459545
0.74257797
0.74780445
0.75077532
0.75237358
0.75319157
0.75359218
0.7537807
0.75386619
0.75390361
0.75391943
0.75392582
0.75392859
0.59717829
0.77287747
0.79799823
0.81721331
0.79917872
0.80027807
0.79030399
0.78313888
0.77313832
0.76152783
0.74797222
0.7320861
0.71402833
0.69402493
0.67297887
0.65224578
0.63353833
0.61894344
0.61071233
0.60891739
0.61261501
0.62095713
0.63253216
0.64591811
0.66000557
0.67409654
0.68801739
0.70236276
0.71630456
0.72591808
0.73090809
0.73293043
0.73304088
0.729929
0.72804117
0.72808804
0.72954698
0.73521045
0.74307721
0.74807867
0.75091372
0.75243735
0.75321845
0.75360243
0.75378413
0.75386711
0.75390375
0.75391939
0.75392576
0.75392858
0.59231981
0.77113316
0.78696779
0.80462528
0.78691806
0.78694279
0.77691193
0.7689173
0.75832588
0.74593878
0.73154299
0.71482239
0.69601253
0.67555237
0.65453669
0.63446786
0.61717931
0.60502009
0.59961769
0.60027743
0.60629426
0.61654402
0.62955258
0.64393757
0.65867898
0.67322686
0.6876357
0.70249187
0.71653161
0.72571604
0.73038058
0.73217677
0.73199755
0.72897398
0.72746282
0.72780291
0.729586
0.7358476
0.74354946
0.7483359
0.75104279
0.75249658
0.75324331
0.75361185
0.75378724
0.75386794
0.75390387
0.75391934
0.75392571
0.75392857
0.58665213
0.7686289
0.77498711
0.79121443
0.77389252
0.77276399
0.76262474
0.75378246
0.74252924
0.72933798
0.71408283
0.69654965
0.67708688
0.65636095
0.63564521
0.61657296
0.60117261
0.59185161
0.58920193
0.59237848
0.6006556
0.61268951
0.6270007
0.64226609
0.65756637
0.67252292
0.68745543
0.70278184
0.71676325
0.72550933
0.72984945
0.73142263
0.73095731
0.72814431
0.72694766
0.72753168
0.72966899
0.73649361
0.74399966
0.74857839
0.75116333
0.75255157
0.75326625
0.75362047
0.75379006
0.75386865
0.75390395
0.75391928
0.75392565
0.75392855
0.58016916
0.76514988
0.76204329
0.77687951
0.75999617
0.75764466
0.74733017
0.73763352
0.72565614
0.71163887
0.69552471
0.67723275
0.65726283
0.63651145
0.6164077
0.59872609
0.58575693
0.57947205
0.57951257
0.58525563
0.59568386
0.60936425
0.62484423
0.64087364
0.65664409
0.67195974
0.68741112
0.70319597
0.71699984
0.72529243
0.72930832
0.7306744
0.72996186
0.72742285
0.72647563
0.72727483
0.72983944
0.73713795
0.74442817
0.74880674
0.7512757
0.75260245
0.75328734
0.75362834
0.75379259
0.75386927
0.753904
0.75391922
0.75392559
0.75392855
0.57300102
0.76038866
0.74813111
0.76150018
0.74511026
0.74148761
0.73091347
0.72036731
0.70761676
0.69275834
0.67580724
0.65685156
0.63657358
0.6160862
0.59696293
0.58116587
0.5711292