/*--------------------------------*- C++ -*----------------------------------*\
  =========                 |
  \\      /  F ield         | OpenFOAM: The Open Source CFD Toolbox
   \\    /   O peration     | Website:  https://openfoam.org
    \\  /    A nd           | Version:  8
     \\/     M anipulation  |
\*---------------------------------------------------------------------------*/
FoamFile
{
    version     2.0;
    format      ascii;
    class       surfaceScalarField;
    location    "0.0199971";
    object      meshPhi;
}
// * * * * * * * * * * * * * * * * * * * * * * * * * * * * * * * * * * * * * //

dimensions      [0 3 -1 0 0 0 0];

internalField   nonuniform List<scalar> 
39600
(
4.8029135e-05
3.1538812e-06
-3.268752e-06
4.8131166e-05
3.7647877e-06
-3.8496423e-06
4.8251241e-05
4.5112843e-06
-4.6119603e-06
4.8393408e-05
5.4049287e-06
-5.525546e-06
4.8558789e-05
6.4753866e-06
-6.6199405e-06
4.8755374e-05
7.7577251e-06
-7.9308742e-06
4.8986495e-05
9.2936987e-06
-9.5010392e-06
4.9263174e-05
1.1133137e-05
-1.1381441e-05
4.9601491e-05
1.3335691e-05
-1.3633034e-05
5.0021534e-05
1.5972498e-05
-1.6328516e-05
5.0557753e-05
1.9128081e-05
-1.9554527e-05
5.1237373e-05
2.2902946e-05
-2.3414057e-05
5.2090603e-05
2.7415421e-05
-2.8028591e-05
5.3158035e-05
3.2804612e-05
-3.354079e-05
5.4498328e-05
3.9231557e-05
-4.0116602e-05
5.6172265e-05
4.6880782e-05
-4.7946333e-05
5.8124621e-05
5.5963145e-05
-5.7246729e-05
6.0305299e-05
6.6718634e-05
-6.8268016e-05
6.2871542e-05
7.9415432e-05
-8.1290466e-05
6.6072069e-05
9.4343014e-05
-9.6620909e-05
7.0210305e-05
0.00011181897
-0.00011459739
7.5719824e-05
0.00013212303
-0.00013552167
8.2683468e-05
0.00015560948
-0.00015979282
9.1842746e-05
0.00018263315
-0.00018782875
0.00010371394
0.00021354058
-0.00022007753
0.00012521746
0.0002476653
-0.00025597527
0.00015236231
0.00028467047
-0.00029536758
0.00017936767
0.00032686253
-0.00034054635
0.0002076928
0.00037696241
-0.00039412087
0.00024457626
0.00043410975
-0.0004554357
0.00028940604
0.00049634336
-0.00052296103
0.00034299786
0.00056431483
-0.00059749022
0.00040764705
0.00063723185
-0.00067852189
0.00047615146
0.00071837985
-0.0007693271
0.00055840981
0.00080691251
-0.00086891459
0.00064957255
0.00090149782
-0.0009761565
0.00075749342
0.0010023402
-0.0010921234
0.0008720472
0.001101255
-0.0012070647
0.0010029203
0.0011892692
-0.0013115205
0.001133856
0.0012909581
-0.0014314251
0.0012777863
0.0014183706
-0.0015776963
0.0014204
0.0015731429
-0.0017521163
0.0015552614
0.0017626893
-0.0019594961
0.0016888142
0.001970764
-0.0021810046
0.0018106193
0.0022111685
-0.0024292974
0.0018925078
0.0024569423
-0.0026838759
0.0015523152
0.0024908675
-0.002685105
0.0010555517
0.0021607464
-0.0022626412
0.00044187191
0.0016055981
-0.0016272417
0.00067816725
-0.00067306123
3.8553494e-05
3.0964964e-06
3.8645018e-05
3.6959372e-06
3.8763079e-05
4.4280311e-06
3.8907789e-05
5.3051051e-06
3.9085165e-05
6.3558894e-06
3.9301193e-05
7.6145142e-06
3.9559896e-05
9.1222179e-06
3.9870432e-05
1.0927811e-05
4.0237433e-05
1.3090006e-05
4.0675542e-05
1.5678426e-05
4.1195662e-05
1.8776067e-05
4.1817863e-05
2.2481074e-05
4.2573516e-05
2.690929e-05
4.3504675e-05
3.219632e-05
4.4697982e-05
3.8498334e-05
4.619186e-05
4.5996271e-05
4.7930082e-05
5.489803e-05
4.9883151e-05
6.543605e-05
5.219513e-05
7.7863557e-05
5.514498e-05
9.2452152e-05
5.9035247e-05
0.00010949582
6.4252387e-05
0.00012926235
7.092524e-05
0.00015206529
7.9728236e-05
0.00017818156
9.1180751e-05
0.00020786546
0.00011103431
0.00024043801
0.00013626122
0.00027543909
0.00016123526
0.0003150757
0.00018758782
0.00036217264
0.00022265739
0.00041558038
0.00026587562
0.00047302315
0.00031793637
0.00053485466
0.00038083209
0.00060021589
0.00044791319
0.00067229335
0.00052846983
0.00075034418
0.00061880283
0.00083251169
0.00072568747
0.00091856845
0.00083978804
0.0010015203
0.00096966081
0.0010738807
0.001101268
0.0011584928
0.0012455179
0.0012672171
0.001391229
0.0014027274
0.0015298328
0.0015727917
0.0016671396
0.0017652308
0.0017914556
0.0019956106
0.001861451
0.0022313286
0.0015403282
0.0022914303
0.001070159
0.0020509268
0.00045700723
0.0015779112
0.00068061144
2.9903501e-05
3.0505342e-06
3.0106588e-05
3.6408858e-06
3.0325948e-05
4.3620887e-06
3.0541815e-05
5.2261116e-06
3.0759151e-05
6.2612147e-06
3.098856e-05
7.5011016e-06
3.1242198e-05
8.9862942e-06
3.1530195e-05
1.0764961e-05
3.1854254e-05
1.2894823e-05
3.2228638e-05
1.5444445e-05
3.2655098e-05
1.8495472e-05
3.3158713e-05
2.2144156e-05
3.3764817e-05
2.6504335e-05
3.4533302e-05
3.1708284e-05
3.5544602e-05
3.790846e-05
3.6812023e-05
4.5283852e-05
3.8308195e-05
5.4039207e-05
4.001761e-05
6.4400686e-05
4.2089099e-05
7.6607663e-05
4.4801629e-05
9.0913617e-05
4.8439555e-05
0.00010759254
5.3342795e-05
0.00012689768
5.9702588e-05
0.00014910541
6.8141835e-05
0.0001744207
7.9159189e-05
0.00020303266
9.7313445e-05
0.00023427427
0.00012049207
0.00026756207
0.00014341643
0.00030505471
0.00016777343
0.00034959924
0.00020094576
0.00039970678
0.00024229918
0.00045285435
0.00029274086
0.00050908952
0.00035352385
0.00056749018
0.0004190696
0.00063113007
0.00049747672
0.00069932578
0.0005868603
0.00076963365
0.00069224824
0.00084144517
0.00080567242
0.00090890261
0.00093419288
0.00096582314
0.0010660123
0.001033451
0.0012107789
0.0011233266
0.0013588942
0.0012390391
0.0015018258
0.0013888157
0.0016415411
0.0015646225
0.0017695197
0.0017836562
0.0018268024
0.0020112258
0.0015257744
0.0020974119
0.0010836323
0.0019365475
0.00047188153
0.0015418001
0.00068083195
2.1663203e-05
3.0161182e-06
2.1862807e-05
3.599625e-06
2.2085401e-05
4.3125627e-06
2.2313966e-05
5.166678e-06
2.2550019e-05
6.189893e-06
2.2797027e-05
7.4155775e-06
2.3063482e-05
8.8836451e-06
2.3347371e-05
1.064186e-05
2.3651309e-05
1.2747178e-05
2.3979864e-05
1.526729e-05
2.4339108e-05
1.8282912e-05
2.4754715e-05
2.1888829e-05
2.5247964e-05
2.6197188e-05
2.5890723e-05
3.1337597e-05
2.673624e-05
3.7460027e-05
2.7804463e-05
4.4741309e-05
2.9071802e-05
5.3384291e-05
3.0552889e-05
6.3609735e-05
3.2424195e-05
7.5642535e-05
3.4921499e-05
8.9722095e-05
3.8319936e-05
0.00010610411
4.2935053e-05
0.00012502507
4.8997283e-05
0.00014672704
5.7112794e-05
0.00017134809
6.7663163e-05
0.00019903505
8.4347897e-05
0.00022913544
0.00010566084
0.00026097368
0.00012666628
0.00029670271
0.00014928904
0.00033908468
0.00018067424
0.00038628279
0.00022026088
0.00043558055
0.00026908737
0.00048672307
0.00032787679
0.00053870446
0.0003918779
0.00059447871
0.00046821655
0.00065338727
0.00055656224
0.00071237031
0.0006604461
0.00077045596
0.00077309416
0.00082287113
0.00090028133
0.00086454695
0.0010322561
0.00091523835
0.0011774236
0.0009861497
0.001327594
0.0010816537
0.0014742536
0.0012107293
0.0016163637
0.001369239
0.0017475873
0.001575801
0.001794697
0.0017962159
0.0015140999
0.0019072591
0.0010962407
0.0018177592
0.00048718522
0.0014983796
0.00067866692
1.3810634e-05
2.9929374e-06
1.3888131e-05
3.5719015e-06
1.4001809e-05
4.2794315e-06
1.4155477e-05
5.1270742e-06
1.4350794e-05
6.142425e-06
1.4579984e-05
7.358641e-06
1.4843209e-05
8.8153037e-06
1.5128705e-05
1.0559748e-05
1.5437743e-05
1.2648422e-05
1.576402e-05
1.5148471e-05
1.6114636e-05
1.8139762e-05
1.6504096e-05
2.1716117e-05
1.6949367e-05
2.5988554e-05
1.7508817e-05
3.1084969e-05
1.8229845e-05
3.715308e-05
1.9125401e-05
4.4368619e-05
2.0190109e-05
5.2932878e-05
2.1486307e-05
6.3060277e-05
2.317446e-05
7.4966152e-05
2.5468622e-05
8.8876604e-05
2.8634433e-05
0.00010502978
3.297377e-05
0.00012364425
3.8747299e-05
0.00014492932
4.6557288e-05
0.0001689603
5.6644038e-05
0.00019585277
7.2098358e-05
0.00022497851
9.1710902e-05
0.00025560369
0.00011088813
0.00028991338
0.0001319856
0.0003304953
0.00016168957
0.00037514639
0.00019959826
0.00042102239
0.00024682555
0.00046754851
0.0003037218
0.00051363502
0.00036617958
0.00056209288
0.00044051533
0.00061228452
0.00052774906
0.00066049469
0.000630117
0.00070537755
0.0007419057
0.00074320587
0.00086776134
0.00076993267
0.0009998436
0.00080386385
0.0011452885
0.00085575699
0.0012971445
0.00093078955
0.0014469362
0.001038759
0.001591457
0.0011792968
0.0017255758
0.0013722903
0.0017648838
0.0015862427
0.0015045292
0.0017203137
0.0011081578
0.0016943395
0.00050243831
0.0014473002
0.00067348609
6.5674778e-06
2.980406e-06
6.6393598e-06
3.5566644e-06
6.743351e-06
4.2610009e-06
6.8752758e-06
5.1048123e-06
7.0330584e-06
6.1156393e-06
7.2099713e-06
7.3265142e-06
7.4069354e-06
8.7768922e-06
7.6180319e-06
1.0513882e-05
7.848372e-06
1.2593681e-05
8.0962004e-06
1.5083061e-05
8.3702292e-06
1.8061421e-05
8.6831445e-06
2.162198e-05
9.0472079e-06
2.587488e-05
9.5073693e-06
3.094698e-05
1.0094944e-05
3.6984688e-05
1.0823953e-05
4.4162694e-05
1.1710453e-05
5.2681012e-05
1.2833315e-05
6.2749834e-05
1.4344676e-05
7.4576502e-05
1.6440952e-05
8.8374717e-05
1.9376637e-05
0.00010436706
2.3446106e-05
0.00012275427
2.8933644e-05
0.00014371244
3.6440601e-05
0.00016726006
4.6094933e-05
0.00019348257
6.0514924e-05
0.00022176549
7.8554272e-05
0.00025138522
9.5992461e-05
0.00028459812
0.00011571602
0.00032371083
0.00014383485
0.00036615104
0.00018013826
0.000408994
0.00022578945
0.00045134599
0.00028086881
0.0004920133
0.00034178612
0.00053366148
0.00041416689
0.00057566182
0.00050022704
0.00061361564
0.00060106161
0.00064580311
0.00071192011
0.00066948381
0.00083643585
0.00068150706
0.00096856829
0.00069878497
0.0011141816
0.00073162838
0.0012673926
0.00078602315
0.0014198149
0.00087272574
0.0015667251
0.00099475497
0.0017034828
0.0011732033
0.0017372113
0.0013808104
0.0014965452
0.0015357097
0.0011193996
0.0015666903
0.00051719161
0.0013894998
0.00066533835
-2.2660348e-07
2.9784477e-06
-1.7457907e-07
3.5543921e-06
-9.8876657e-08
4.2584809e-06
-4.1240048e-09
5.101982e-06
1.0539189e-07
6.1124158e-06
2.2524388e-07
7.3227602e-06
3.5749662e-07
8.77242e-06
4.9920066e-07
1.0508442e-05
6.5741666e-07
1.2586937e-05
8.3145565e-07
1.5074585e-05
1.0305311e-06
1.8050601e-05
1.2648041e-06
2.1608021e-05
1.5434069e-06
2.5856686e-05
1.9013774e-06
3.092311e-05
2.3597713e-06
3.6952996e-05
2.9316814e-06
4.4120825e-05
3.6502365e-06
5.2626042e-05
4.6056678e-06
6.267535e-05
5.9422094e-06
7.4469701e-05
7.8422985e-06
8.8212014e-05
1.0548164e-05
0.00010411021
1.4347683e-05
0.00012234768
1.9546115e-05
0.00014306744
2.674528e-05
0.00016623351
3.6003529e-05
0.00019189592
4.9544762e-05
0.00021945358
6.6112523e-05
0.00024825929
8.1899508e-05
0.00028067722
0.00010036881
0.00031864161
0.00012698992
0.00035919516
0.00016175361
0.00039938493
0.00020585281
0.00043799042
0.00025918056
0.00047371044
0.0003185591
0.00050905273
0.00038902504
0.00054340226
0.00047385266
0.00057164107
0.00057313408
0.00059165863
0.0006829993
0.00060165557
0.00080616071
0.00059931532
0.00093828362
0.00060016479
0.0010839581
0.00061398874
0.0012382414
0.00064767103
0.0013928425
0.00071291342
0.0015420955
0.00081587768
0.0016812764
0.00097881063
0.0017113276
0.0011799195
0.0014895714
0.0013531049
0.0011299721
0.0014348457
0.00053119865
0.0013250261
0.00065402821
-6.6050319e-06
2.9864768e-06
-6.602955e-06
3.5639446e-06
-6.5940252e-06
4.2700678e-06
-6.5711167e-06
5.1161121e-06
-6.532568e-06
6.1296855e-06
-6.4771024e-06
7.3438237e-06
-6.4018042e-06
8.7979546e-06
-6.3103803e-06
1.0539229e-05
-6.1987652e-06
1.2623845e-05
-6.0717817e-06
1.5118589e-05
-5.9242105e-06
1.8102899e-05
-5.7519565e-06
2.1669994e-05
-5.5498972e-06
2.592991e-05
-5.2908281e-06
3.1009394e-05
-4.9583722e-06
3.705429e-05
-4.5357247e-06
4.4239229e-05
-3.9774196e-06
5.276325e-05
-3.18629e-06
6.283177e-05
-2.0227183e-06
7.4639277e-05
-3.1901721e-07
8.8379503e-05
2.1552948e-06
0.00010424853
5.6821052e-06
0.00012241268
1.0584636e-05
0.00014298217
1.7464625e-05
0.00016587101
2.6347301e-05
0.00019108328
3.9124482e-05
0.00021802984
5.4312459e-05
0.00024621453
6.8534857e-05
0.00027811304
8.5847929e-05
0.0003152057
0.00011104809
0.000354173
0.00014432579
0.00039206004
0.00018689722
0.00042732313
0.00023852199
0.00045853484
0.00029636013
0.00048804993
0.00036493584
0.00051526151
0.00044847847
0.00053430522
0.00054618301
0.00054267362
0.00065499359
0.00053945114
0.00077677846
0.000523059
0.0009088232
0.00050766294
0.0010544643
0.00050252637
0.0012095865
0.00051547587
0.0013660033
0.00055920701
0.0015175215
0.00064263895
0.0016589634
0.00078919156
0.0016869576
0.00098329732
0.0014832684
0.0011721884
0.0011398475
0.0012993221
0.00054433747
0.0012546971
0.00063980899
-1.2548264e-05
3.0042747e-06
-1.256605e-05
3.5852338e-06
-1.2583711e-05
4.2955435e-06
-1.2592841e-05
5.1465846e-06
-1.2589898e-05
6.1660981e-06
-1.2573861e-05
7.387342e-06
-1.2543621e-05
8.8500777e-06
-1.250383e-05
1.0601805e-05
-1.245279e-05
1.2699075e-05
-1.2396414e-05
1.5209275e-05
-1.233108e-05
1.8212304e-05
-1.2254241e-05
2.1802021e-05
-1.2160923e-05
2.6089049e-05
-1.2026543e-05
3.1200786e-05
-1.1833698e-05
3.7283511e-05
-1.1561597e-05
4.4512049e-05
-1.1159574e-05
5.3086352e-05
-1.0529097e-05
6.3210355e-05
-9.5395632e-06
7.507498e-05
-8.035216e-06
8.8866122e-05
-5.7973685e-06
0.00010476918
-2.5494309e-06
0.00012293453
2.0467866e-06
0.00014344006
8.5867504e-06
0.00016615211
1.7104635e-05
0.00019101836
2.9210435e-05
0.00021746438
4.3107212e-05
0.00024520701
5.5849361e-05
0.00027684561
7.2085266e-05
0.00031333777
9.5932776e-05
0.00035100685
0.00012777213
0.00038693782
0.00016883823
0.00041925458
0.00021880062
0.00044640106
0.00027509613
0.00047057116
0.00034180082
0.0004911784
0.00042400781
0.00050157379
0.00052010796
0.00049883913
0.00062780621
0.00048289679
0.00074818758
0.00045285693
0.00088008339
0.00042151264
0.0010255992
0.00039753141
0.0011813661
0.00038979279
0.0013392834
0.00041193092
0.001492978
0.00047537103
0.0016365316
0.00060468805
0.0016637803
0.00079112713
0.0014773652
0.00099292041
0.0011490552
0.0011603071
0.00055659576
0.001178695
0.00062263387
-1.8072381e-05
3.0314006e-06
-1.8073477e-05
3.6173406e-06
-1.806927e-05
4.3336573e-06
-1.8063568e-05
5.1919048e-06
-1.8060284e-05
6.220143e-06
-1.8063875e-05
7.4519858e-06
-1.8075599e-05
8.9277243e-06
-1.8099756e-05
1.0695386e-05
-1.813413e-05
1.2812304e-05
-1.8180882e-05
1.5346427e-05
-1.8233682e-05
1.8378783e-05
-1.8285371e-05
2.2003907e-05
-1.8326455e-05
2.6333476e-05
-1.8329056e-05
3.1495657e-05
-1.8273594e-05
3.7637069e-05
-1.8135811e-05
4.4933228e-05
-1.7876979e-05
5.3586165e-05
-1.7409812e-05
6.3801271e-05
-1.6600757e-05
7.5765125e-05
-1.5302981e-05
8.9657414e-05
-1.3307865e-05
0.00010565445
-1.0347791e-05
0.00012389385
-6.0680729e-06
0.00014441973
1.0537068e-07
0.00016705756
8.2542236e-06
0.00019169443
1.9741047e-05
0.00021775611
3.2427741e-05
0.00024523573
4.3795913e-05
0.00027684923
5.902097e-05
0.00031296963
8.1577218e-05
0.00034960703
0.0001120194
0.0003839028
0.00015160279
0.00041364834
0.00019993549
0.00043714163
0.00025468465
0.00045642677
0.00031953225
0.00047093279
0.00040035664
0.00047320468
0.00049482666
0.00045990072
0.00060135778
0.00043172128
0.00072030751
0.0003883818
0.000851979
0.0003413237
0.00099728545
0.00029862817
0.0011535395
0.00027025711
0.0013127094
0.00027078182
0.0014684735
0.00031381732
0.0016140188
0.0004251518
0.0016416136
0.00060309478
0.0014717217
0.000815193
0.0011575961
0.0010183235
0.00056797553
0.0010976909
0.00060278292
-2.3244083e-05
3.0679212e-06
-2.3262652e-05
3.6612611e-06
-2.3282051e-05
4.38681e-06
-2.330675e-05
5.2562139e-06
-2.3341398e-05
6.2977718e-06
-2.3390325e-05
7.54572e-06
-2.3455009e-05
9.0405653e-06
-2.3539263e-05
1.0831084e-05
-2.3641039e-05
1.2975228e-05
-2.3762903e-05
1.5541937e-05
-2.3897183e-05
1.8612984e-05
-2.4036998e-05
2.2284383e-05
-2.4167754e-05
2.6668764e-05
-2.4262e-05
3.1895355e-05
-2.4292213e-05
3.8111235e-05
-2.4258102e-05
4.5495386e-05
-2.4138145e-05
5.4254782e-05
-2.3833759e-05
6.4594888e-05
-2.3213314e-05
7.6699012e-05
-2.2129269e-05
9.0741253e-05
-2.038197e-05
0.00010688987
-1.771995e-05
0.00012527369
-1.3765552e-05
0.00014590209
-7.9896913e-06
0.00016856647
-2.3818685e-07
0.00019308907
1.0649439e-05
0.00021888002
2.2204211e-05
0.000246265
3.2323398e-05
0.00027807655
4.6605534e-05
0.0003140485
6.7927959e-05
0.00034991134
9.7011687e-05
0.00038288827
0.00013513388
0.00041043238
0.00018186629
0.00043068949
0.00023506538
0.00044555522
0.00029806977
0.00045448286
0.00037746807
0.00044918054
0.00047028444
0.00042586869
0.00057559425
0.00038597569
0.00069308587
0.00032977477
0.00082445483
0.00026734303
0.00096947076
0.00020612485
0.0011260831
0.00015723681
0.0012862943
0.00013611553
0.0014440148
0.00015836499
0.0015914346
0.00025098713
0.0016202644
0.00041954488
0.001466162
0.00063918261
0.00116549
0.00087363182
0.00057852299
0.0010119556
0.00058030821
-2.8082047e-05
3.1131891e-06
-2.8149191e-05
3.7154818e-06
-2.8234775e-05
4.4520725e-06
-2.8333925e-05
5.3349844e-06
-2.8445989e-05
6.3930588e-06
-2.8568874e-05
7.660899e-06
-2.8702235e-05
9.1798469e-06
-2.884777e-05
1.0999281e-05
-2.9003647e-05
1.3177964e-05
-2.9171851e-05
1.5785887e-05
-2.9346913e-05
1.8905682e-05
-2.9523124e-05
2.2634498e-05
-2.9689195e-05
2.7086089e-05
-2.9816596e-05
3.2390114e-05
-2.9904089e-05
3.8697634e-05
-2.9979008e-05
4.6193945e-05
-3.0013337e-05
5.5089847e-05
-2.9876463e-05
6.5590329e-05
-2.9423509e-05
7.7871643e-05
-2.8539265e-05
9.2105454e-05
-2.7037829e-05
0.00010845842
-2.4678636e-05
0.00012705274
-2.1056556e-05
0.00014786203
-1.5706443e-05
0.00017065428
-8.3778881e-06
0.00019518268
1.9096475e-06
0.00022084219
1.2396636e-05
0.00024831351
2.1388876e-05
0.0002805108
3.47953e-05
0.00031651956
5.4936484e-05
0.0003518443
8.2695341e-05
0.00038379821
0.00011937761
0.00040949294
0.00016453301
0.00042690824
0.00021617791
0.00043780312
0.00027734731
0.00044165406
0.0003552783
0.0004293112
0.0004464161
0.00039654654
0.00055045027
0.00034545683
0.00066645553
0.00027679992
0.00079743922
0.00019930516
0.00094208607
0.00011977947
0.0010989475
5.0500109e-05
0.0012600271
7.7407355e-06
0.0014195815
8.8657612e-06
0.0015687728
8.2142113e-05
0.0015995492
0.00024030797
0.0014605835
0.00046492699
0.0011727387
0.00072673544
0.0005882682
0.00092205367
0.00055548093
-3.2638797e-05
3.1677032e-06
-3.2800015e-05
3.7818652e-06
-3.2980333e-05
4.5330847e-06
-3.3158209e-05
5.4333584e-06
-3.3330684e-05
6.5116993e-06
-3.3500097e-05
7.8034046e-06
-3.3667241e-05
9.35039e-06
-3.3837999e-05
1.1202771e-05
-3.4013195e-05
1.3420579e-05
-3.4198142e-05
1.6074815e-05
-3.4389809e-05
1.924978e-05
-3.4586946e-05
2.3044321e-05
-3.4781272e-05
2.7573899e-05
-3.4958911e-05
3.2970977e-05
-3.5153186e-05
3.9393036e-05
-3.5389326e-05
4.7030649e-05
-3.559636e-05
5.6096197e-05
-3.5606641e-05
6.6786527e-05
-3.5280803e-05
7.9275406e-05
-3.4558017e-05
9.3739748e-05
-3.3289176e-05
0.00011034696
-3.1232069e-05
0.00012921375
-2.7948729e-05
0.00015027969
-2.3046963e-05
0.00017329823
-1.6157104e-05
0.00019795193
-6.4825082e-06
0.00022361438
2.9860941e-06
0.00025134173
1.0969831e-05
0.00028410646
2.3559762e-05
0.00032033233
4.2567172e-05
0.0003553462
6.9032669e-05
0.00038656946
0.00010429463
0.00041076279
0.0001478941
0.00042573516
0.00019798041
0.00043311324
0.00025732208
0.00043240675
0.000333746
0.00041358093
0.00042318031
0.00037194365
0.00052588633
0.0003102166
0.00064037175
0.00022960039
0.00077088807
0.00013745333
0.00091508588
3.9897147e-05
0.0010720997
-4.9585753e-05
0.0012338929
-0.00011395733
0.001395158
-0.00013424434
0.0015460112
-8.0918488e-05
0.0015792987
6.5864901e-05
0.0014548847
0.00029272087
0.001179344
0.00057788787
0.00059726642
0.00082822517
0.00052834537
-3.678139e-05
3.229265e-06
-3.6936472e-05
3.8538951e-06
-3.7109603e-05
4.6177251e-06
-3.7283826e-05
5.5331871e-06
-3.7461101e-05
6.630462e-06
-3.7646937e-05
7.9454701e-06
-3.7842764e-05
9.5213261e-06
-3.8055623e-05
1.1409729e-05
-3.8283437e-05
1.3671502e-05
-3.8533119e-05
1.6379917e-05
-3.8798529e-05
1.9620413e-05
-3.9083237e-05
2.34943e-05
-3.9378767e-05
2.811914e-05
-3.9698664e-05
3.3631729e-05
-4.007499e-05
4.0195061e-05
-4.0506665e-05
4.8002449e-05
-4.0883934e-05
5.7262225e-05
-4.1004801e-05
6.8166565e-05
-4.0778383e-05
8.0892777e-05
-4.0201891e-05
9.5627886e-05
-3.9156303e-05
0.00011254198
-3.7396148e-05
0.00013174132
-3.4457205e-05
0.00015313331
-3.001039e-05
0.00017646862
-2.355784e-05
0.00020135435
-1.4511474e-05
0.00022716246
-6.0208482e-06
0.00025532167
1.0502445e-06
0.00028881454
1.2869738e-05
0.00032542221
3.0786669e-05
0.00036033815
5.5988163e-05
0.00039110161
8.9850892e-05
0.00041412053
0.00013191339
0.00042702102
0.0001804393
0.00043131313
0.00023796029
0.00042653612
0.00031284256
0.00040175716
0.00040055071
0.00035180469
0.00050187751
0.00027996956
0.00061481353
0.00018782383
0.00074477856
8.1379193e-05
0.00088845219
-3.392813e-05
0.0010455298
-0.00014343745
0.0012079053
-0.00022938828
0.0013707507
-0.00027135093
0.0015231623
-0.00023849093
0.0015594124
-0.00010413222
0.0014490111
0.00012257013
0.0011852864
0.00042757746
0.00060554485
0.00073097024
0.00049915168
-4.0546228e-05
3.2995921e-06
-4.0625216e-05
3.9378352e-06
-4.0726777e-05
4.7181494e-06
-4.0852003e-05
5.6534108e-06
-4.1007215e-05
6.7740464e-06
-4.1194756e-05
8.1170461e-06
-4.1417462e-05
9.7263947e-06
-4.1678335e-05
1.1654647e-05
-4.1975823e-05
1.396487e-05
-4.2312605e-05
1.673139e-05
-4.2684825e-05
2.0042765e-05
-4.3095377e-05
2.4002964e-05
-4.3543966e-05
2.8733628e-05
-4.4044131e-05
3.437624e-05
-4.4618984e-05
4.1098039e-05
-4.5237977e-05
4.9093015e-05
-4.5755761e-05
5.8564093e-05
-4.5986975e-05
6.9704358e-05
-4.5886369e-05
8.2705113e-05
-4.5478256e-05
9.775961e-05
-4.4659743e-05
0.00011503396
-4.3187609e-05
0.0001346244
-4.0592453e-05
0.00015640906
-3.6591867e-05
0.00018014159
-3.0570329e-05
0.00020536013
-2.2170847e-05
0.00023144806
-1.4625487e-05
0.00026020407
-8.3913847e-06
0.00029458878
2.7001252e-06
0.00033174299
1.9567195e-05
0.00036676652
4.3533404e-05
0.00039733724
7.6018054e-05
0.0004195049
0.00011656288
0.00043070829
0.00016352766
0.00043235001
0.00021923743
0.00042400568
0.00029254635
0.00039382391
0.00037850863
0.00033614079
0.00047840949
0.0002547677
0.00058976832
0.00015160826
0.00071909752
3.1315457e-05
0.00086217209
-0.00010139855
0.0010192323
-0.00023068895
0.0011820687
-0.00033814344
0.0013463627
-0.00040197976
0.0015002248
-0.00039006144
0.0015398043
-0.00026910111
0.001442879
-4.5100488e-05
0.0011905599
0.00027612363
0.00061312744
0.00063059212
0.00046798615
-4.4103355e-05
3.3777808e-06
-4.4186874e-05
4.0312695e-06
-4.4290102e-05
4.8302566e-06
-4.441489e-05
5.7877051e-06
-4.4568039e-05
6.9350127e-06
-4.4753e-05
8.310018e-06
-4.4975799e-05
9.9575203e-06
-4.5241345e-05
1.1931546e-05
-4.555378e-05
1.4296437e-05
-4.5918799e-05
1.7128335e-05
-4.6340685e-05
2.0518488e-05
-4.6826688e-05
2.4573587e-05
-4.7382316e-05
2.9419422e-05
-4.8020346e-05
3.5202809e-05
-4.8746884e-05
4.2095205e-05
-4.9507752e-05
5.0288924e-05
-5.0149976e-05
5.9987407e-05
-5.0527455e-05
7.1393723e-05
-5.0608375e-05
8.4708998e-05
-5.0401718e-05
0.00010012847
-4.9819766e-05
0.00011781411
-4.8629229e-05
0.00013785076
-4.6368276e-05
0.00016009357
-4.2792402e-05
0.00018429234
-3.7192091e-05
0.00020992413
-2.9451096e-05
0.0002364235
-2.282839e-05
0.00026594961
-1.7373214e-05
0.00030138433
-6.9711644e-06
0.00033923539
8.8833266e-06
0.00037455852
3.1640768e-05
0.0004051856
6.2768117e-05
0.00042680717
0.00010181222
0.00043666617
0.00014721621
0.00043607413
0.00020112234
0.00042464021
0.00027282729
0.00038958619
0.00035702549
0.00032473538
0.00045545321
0.00023437523
0.0005652038
0.00012068256
0.0006938114
-1.3035104e-05
0.00083621119
-0.00016279514
0.00099317167
-0.00031161611
0.0011563565
-0.00044047854
0.00132196
-0.00052634526
0.0014771639
-0.00053575863
0.0015203482
-0.00042922546
0.0014364266
-0.00021019877
0.0011951607
0.00012400019
0.00062002572
0.00052755801
0.00043509639
-4.7389699e-05
3.4635719e-06
-4.7482002e-05
4.1338872e-06
-4.7594402e-05
4.9532273e-06
-4.7729481e-05
5.9351624e-06
-4.7893448e-05
7.1118038e-06
-4.8090229e-05
8.5219545e-06
-4.8326263e-05
1.0211497e-05
-4.8607274e-05
1.2236225e-05
-4.8939338e-05
1.4661495e-05
-4.9330923e-05
1.7566285e-05
-4.9790123e-05
2.1043587e-05
-5.0329295e-05
2.5203694e-05
-5.0955215e-05
3.0176156e-05
-5.1683565e-05
3.6112476e-05
-5.2508175e-05
4.3186205e-05
-5.3365816e-05
5.1592579e-05
-5.4132185e-05
6.1539728e-05
-5.4684215e-05
7.3239989e-05
-5.4974994e-05
8.6904188e-05
-5.4994413e-05
0.00010273067
-5.4657755e-05
0.00012087563
-5.3745394e-05
0.00014141211
-5.1803275e-05
0.00016417282
-4.8621002e-05
0.00018889985
-4.3422548e-05
0.00021501895
-3.6346143e-05
0.00024204751
-3.0632188e-05
0.00027250876
-2.5909445e-05
0.00030915583
-1.6166378e-05
0.00034785345
-1.2904473e-06
0.00038366263
2.0283663e-05
0.00041459231
5.0075243e-05
0.00043596788
8.7637567e-05
0.00044483206
0.00013148344
0.00044242031
0.0001835939
0.00042838405
0.000253667
0.00038900723
0.00033607913
0.00031758923
0.00043298601
0.0002188461
0.00054109608
9.5183539e-05
0.00066889617
-5.144501e-05
0.00081054452
-0.00021782654
0.00096732371
-0.00038585491
0.0011307443
-0.00053596671
0.0012975201
-0.00064394613
0.0014539457
-0.00067502183
0.0015009535
-0.00058384355
0.0014296057
-0.0003722672
0.001199066
-2.8502127e-05
0.0006262643
0.00042211852
0.0004005374
-5.0415132e-05
3.5568902e-06
-5.0516413e-05
4.2454557e-06
-5.0639118e-05
5.0869861e-06
-5.0786081e-05
6.0954471e-06
-5.0963709e-05
7.3042028e-06
-5.1176148e-05
8.7525259e-06
-5.1430765e-05
1.0488281e-05
-5.1733541e-05
1.2568108e-05
-5.2092895e-05
1.5059806e-05
-5.2518228e-05
1.8044127e-05
-5.3019071e-05
2.1616906e-05
-5.3609247e-05
2.5891833e-05
-5.4296917e-05
3.1002743e-05
-5.5089096e-05
3.7104612e-05
-5.5976366e-05
4.4374261e-05
-5.6909796e-05
5.3009858e-05
-5.7789944e-05
6.3226205e-05
-5.8512625e-05
7.5245923e-05
-5.9020336e-05
8.9290996e-05
-5.9276152e-05
0.00010556285
-5.9190801e-05
0.00012421237
-5.8550827e-05
0.00014529789
-5.6917119e-05
0.00016863586
-5.4099852e-05
0.00019395774
-4.9265802e-05
0.00022061434
-4.2847921e-05
0.00024826691
-3.8029922e-05
0.00027982476
-3.4005652e-05
0.00031783419
-2.4900717e-05
0.00035752439
-1.0971735e-05
0.00039399555
9.4459389e-06
0.00042545012
3.7928832e-05
0.00044684894
7.4032648e-05
0.00045503086
0.00011632919
0.00045117687
0.00016665626
0.0004349783
0.00023507076
0.00039178431
0.0003156686
0.00031437004
0.00041100684
0.00020782065
0.00051744456
7.4694639e-05
0.00064435331
-8.4389878e-05
0.00078517562
-0.00026697851
0.00094169048
-0.00045390625
0.0011052396
-0.00062510927
0.0012730429
-0.00075526105
0.0014305742
-0.00080827048
0.0014815627
-0.00073339533
0.0014223739
-0.00053130893
0.0012022423
-0.00018089724
0.00063185862
0.000314738
0.00036455063
-5.3195135e-05
3.6574965e-06
-5.3305176e-05
4.3655576e-06
-5.3438282e-05
5.2310352e-06
-5.3597705e-05
6.2681528e-06
-5.378984e-05
7.5112764e-06
-5.4019716e-05
9.0008953e-06
-5.4295249e-05
1.0786321e-05
-5.4623535e-05
1.2925678e-05
-5.5014095e-05
1.5489104e-05
-5.5477418e-05
1.8559697e-05
-5.6022895e-05
2.2236166e-05
-5.6664541e-05
2.6635526e-05
-5.7408681e-05
3.1896209e-05
-5.8254865e-05
3.8176187e-05
-5.9194081e-05
4.5655895e-05
-6.0191884e-05
5.4538427e-05
-6.1174993e-05
6.5045684e-05
-6.2058598e-05
7.7410588e-05
-6.2777066e-05
9.1867332e-05
-6.3268448e-05
0.00010862098
-6.3434789e-05
0.00012781646
-6.3059048e-05
0.00014949729
-6.1730883e-05
0.00017346762
-5.9254971e-05
0.00019944443
-5.4737983e-05
0.00022668565
-4.8962234e-05
0.00025504759
-4.5029597e-05
0.00028785392
-4.1682088e-05
0.00032738474
-3.3195595e-05
0.00036821302
-2.0178145e-05
0.00040550856
-8.8387739e-07
0.00043769605
2.6320122e-05
0.00045938025
6.0988421e-05
0.00046719918
0.00010174494
0.00046229076
0.00015030343
0.00044438953
0.00021703992
0.00039789764
0.00029580364
0.00031505792
0.00038951525
0.00020132074
0.00049424919
5.9339437e-05
0.0006201828
-0.0001116451
0.00076010505
-0.00030995914
0.00091627072
-0.00051540099
0.0010798441
-0.00070746397
0.0012485319
-0.00085976179
0.0014070496
-0.0009349086
0.0014621254
-0.00087715029
0.0014146714
-0.00068677598
0.0012046695
-0.00033284254
0.00063680626
0.00020572395
0.00032723011
-5.574151e-05
3.765085e-06
-5.5860183e-05
4.4940721e-06
-5.6003583e-05
5.3851436e-06
-5.6175515e-05
6.4531384e-06
-5.6382673e-05
7.73304e-06
-5.6630809e-05
9.2670833e-06
-5.6928667e-05
1.1105749e-05
-5.7284338e-05
1.330909e-05
-5.7707289e-05
1.5949508e-05
-5.8208464e-05
1.9112538e-05
-5.8796325e-05
2.2899782e-05
-5.9485398e-05
2.7432665e-05
-6.0277357e-05
3.2852531e-05
-6.1170687e-05
3.9321544e-05
-6.2156558e-05
4.7024657e-05
-6.3216663e-05
5.6171078e-05
-6.4304648e-05
6.6991373e-05
-6.5344629e-05
7.972918e-05
-6.6264694e-05
9.4628761e-05
-6.6984613e-05
0.00011189746
-6.7398576e-05
0.00013167938
-6.7278294e-05
0.00015400174
-6.6259734e-05
0.00017866715
-6.410183e-05
0.00020536224
-5.986808e-05
0.00023322885
-5.4721654e-05
0.00026238618
-5.1651043e-05
0.00029658102
-4.8958526e-05
0.00033776079
-4.1064962e-05
0.00037985041
-2.8918975e-05
0.00041811285
-1.071535e-05
0.00045122067
1.5233225e-05
0.00047343734
4.8482207e-05
0.00048119731
8.7704712e-05
0.00047560665
0.0001345045
0.00045643884
0.00019955162
0.000407143
0.00027647456
0.00031940771
0.00036850707
0.00019903977
0.00047148752
4.8775596e-05
0.00059636134
-0.00013355758
0.00073530802
-0.0003471062
0.00089103433
-0.00057066758
0.0010545229
-0.00078333646
0.0012239459
-0.00095771172
0.0013833255
-0.0010551283
0.0014425562
-0.00101534
0.0014064574
-0.00083857703
0.0012063345
-0.00048385827
0.00064109915
9.554341e-05
0.00028882895
-5.8065336e-05
3.8793382e-06
-5.8192639e-05
4.6308397e-06
-5.8346574e-05
5.5491482e-06
-5.8530923e-05
6.6496409e-06
-5.8753555e-05
7.9688449e-06
-5.9020492e-05
9.550108e-06
-5.9340526e-05
1.1445169e-05
-5.9722671e-05
1.3716773e-05
-6.0175399e-05
1.6438754e-05
-6.0709611e-05
1.9699871e-05
-6.1334751e-05
2.36049e-05
-6.2060506e-05
2.8278519e-05
-6.2891083e-05
3.3866245e-05
-6.3819406e-05
4.0533323e-05
-6.4849152e-05
4.8472101e-05
-6.5979345e-05
5.7900396e-05
-6.7175651e-05
6.905636e-05
-6.8375427e-05
8.2194705e-05
-6.949261e-05
9.7567311e-05
-7.0435432e-05
0.00011538342
-7.1095323e-05
0.00013579257
-7.1224238e-05
0.00015880307
-7.0518434e-05
0.00018422285
-6.8654902e-05
0.00021169547
-6.4678239e-05
0.00024022251
-6.0155975e-05
0.00027025272
-5.7913169e-05
0.00030597459
-5.5839532e-05
0.00034892362
-4.8509778e-05
0.00039238061
-3.7202105e-05
0.00043174838