/*--------------------------------*- C++ -*----------------------------------*\
  =========                 |
  \\      /  F ield         | OpenFOAM: The Open Source CFD Toolbox
   \\    /   O peration     | Website:  https://openfoam.org
    \\  /    A nd           | Version:  8
     \\/     M anipulation  |
\*---------------------------------------------------------------------------*/
FoamFile
{
    version     2.0;
    format      ascii;
    class       volScalarField;
    location    "0.0199971";
    object      nut;
}
// * * * * * * * * * * * * * * * * * * * * * * * * * * * * * * * * * * * * * //

dimensions      [0 2 -1 0 0 0 0];

internalField   nonuniform List<scalar> 
20000
(
0.0011720939
0.0029654444
0.0040247365
0.0044644835
0.0041399077
0.0027746505
0.00059395187
1.0300454e-07
3.9395195e-09
3.9143608e-09
3.8053657e-09
3.8388776e-09
3.7944667e-09
3.8259202e-09
3.8306484e-09
3.8651911e-09
3.8938594e-09
3.9439243e-09
4.0006999e-09
4.0779246e-09
4.1696348e-09
4.2853881e-09
4.4241726e-09
4.5920549e-09
4.7876436e-09
5.0107772e-09
5.2552895e-09
5.5127449e-09
5.7694281e-09
6.0110967e-09
6.2297163e-09
6.423115e-09
6.5830746e-09
6.7119613e-09
6.8446479e-09
6.9708968e-09
7.0270472e-09
7.0073033e-09
6.9665419e-09
7.0646431e-09
7.2844922e-09
7.3956251e-09
7.4275112e-09
7.3977079e-09
7.3722852e-09
7.3586886e-09
7.3526908e-09
7.3503248e-09
7.3494599e-09
7.3491663e-09
0.0011592309
0.0029239765
0.0039584767
0.0043683598
0.0040073571
0.0025822245
0.00049212095
4.4969664e-08
3.8875116e-09
3.8757994e-09
3.7680177e-09
3.8046454e-09
3.76233e-09
3.7962345e-09
3.8028463e-09
3.8386607e-09
3.8685494e-09
3.9197296e-09
3.9771928e-09
4.0549338e-09
4.1471817e-09
4.2631624e-09
4.4021219e-09
4.5701041e-09
4.7662278e-09
4.9905294e-09
5.2373451e-09
5.4980213e-09
5.7583128e-09
6.0045293e-09
6.2271053e-09
6.4223876e-09
6.581117e-09
6.7117444e-09
6.8542827e-09
6.9678624e-09
7.0153103e-09
6.9940654e-09
6.9606301e-09
7.0972793e-09
7.2979282e-09
7.4002599e-09
7.4276303e-09
7.3976727e-09
7.3720935e-09
7.3587536e-09
7.3527569e-09
7.3503444e-09
7.3494627e-09
7.3491676e-09
0.0011587595
0.0029006249
0.003901868
0.004274513
0.0038695372
0.0023689048
0.00038993173
2.1948061e-08
3.8621985e-09
3.8582199e-09
3.752776e-09
3.790523e-09
3.7484596e-09
3.783228e-09
3.7906983e-09
3.8276254e-09
3.8588344e-09
3.9102064e-09
3.9682592e-09
4.0465193e-09
4.1392411e-09
4.2555339e-09
4.3948182e-09
4.5631242e-09
4.7597825e-09
4.98489e-09
5.2329054e-09
5.4950926e-09
5.7570265e-09
6.0038405e-09
6.2268996e-09
6.4223266e-09
6.5807241e-09
6.7134949e-09
6.8620549e-09
6.9617752e-09
6.9938822e-09
6.9658159e-09
6.9564891e-09
7.1364239e-09
7.3189293e-09
7.4046482e-09
7.428912e-09
7.3969723e-09
7.3721831e-09
7.3588636e-09
7.3528271e-09
7.350375e-09
7.3494726e-09
7.3491705e-09
0.0011564314
0.002874277
0.0038434851
0.0041815373
0.0037368738
0.0021610254
0.00030131279
1.265442e-08
3.8473833e-09
3.8486817e-09
3.7448892e-09
3.782144e-09
3.7423346e-09
3.7781188e-09
3.7863041e-09
3.8238502e-09
3.8554336e-09
3.907903e-09
3.966318e-09
4.0448729e-09
4.1379184e-09
4.2544017e-09
4.3938537e-09
4.562258e-09
4.7590611e-09
4.9843505e-09
5.2326386e-09
5.4951076e-09
5.7577366e-09
6.0074419e-09
6.2327516e-09
6.4281112e-09
6.584257e-09
6.7224823e-09
6.8681064e-09
6.9518734e-09
6.9740037e-09
6.9478755e-09
6.9551455e-09
7.1696049e-09
7.3336857e-09
7.4101206e-09
7.4309467e-09
7.3968857e-09
7.3721616e-09
7.3588935e-09
7.3528454e-09
7.3503825e-09
7.3494752e-09
7.349172e-09
0.001154396
0.0028476828
0.0037850666
0.0040881621
0.003605412
0.0019524836
0.00022107819
8.4737724e-09
3.8411666e-09
3.842978e-09
3.7382466e-09
3.7759903e-09
3.7412335e-09
3.7772409e-09
3.7857955e-09
3.82379e-09
3.8560601e-09
3.9090765e-09
3.9690356e-09
4.0492415e-09
4.1439651e-09
4.2619751e-09
4.4028839e-09
4.5725454e-09
4.7704934e-09
4.9967017e-09
5.2456997e-09
5.5085687e-09
5.7712754e-09
6.0204619e-09
6.24493e-09
6.4381437e-09
6.592399e-09
6.7357256e-09
6.8713798e-09
6.9405934e-09
6.9547763e-09
6.928627e-09
6.9650554e-09
7.2005227e-09
7.3497719e-09
7.4157385e-09
7.4333739e-09
7.3967931e-09
7.372159e-09
7.3589203e-09
7.3528601e-09
7.3503895e-09
7.3494781e-09
7.3491733e-09
0.0011520801
0.0028214497
0.0037266311
0.0039935765
0.0034730447
0.001747542
0.00014856285
6.4288738e-09
3.8400165e-09
3.8441528e-09
3.7418214e-09
3.7753541e-09
3.746213e-09
3.7836109e-09
3.7934026e-09
3.8329071e-09
3.8667639e-09
3.9215354e-09
3.9831863e-09
4.0651215e-09
4.1617095e-09
4.281526e-09
4.4242325e-09
4.5954726e-09
4.7947088e-09
5.0216317e-09
5.2705922e-09
5.5325487e-09
5.7937575e-09
6.0412258e-09
6.2634474e-09
6.4530729e-09
6.6050249e-09
6.751643e-09
6.8736547e-09
6.929565e-09
6.9391018e-09
6.9193738e-09
6.9873922e-09
7.227438e-09
7.3656034e-09
7.4217961e-09
7.4356696e-09
7.3967848e-09
7.3721139e-09
7.3589363e-09
7.3528699e-09
7.3503936e-09
7.3494799e-09
7.3491744e-09
0.0011492247
0.0027947463
0.0036678407
0.0038973822
0.0033399818
0.0015512741
8.7074762e-05
5.3774109e-09
3.8471914e-09
3.8534505e-09
3.7524258e-09
3.7882715e-09
3.7587429e-09
3.797091e-09
3.8080346e-09
3.8488135e-09
3.8843414e-09
3.9409198e-09
4.0046651e-09
4.0888597e-09
4.187938e-09
4.3102694e-09
4.4555395e-09
4.6291103e-09
4.8302699e-09
5.0582674e-09
5.3071302e-09
5.5675689e-09
5.8259329e-09
6.0697336e-09
6.2877161e-09
6.4723417e-09
6.6216695e-09
6.7684544e-09
6.8759631e-09
6.9203648e-09
6.9263516e-09
6.9148328e-09
7.0177042e-09
7.2532716e-09
7.3824504e-09
7.4292817e-09
7.4373005e-09
7.396788e-09
7.3720209e-09
7.3589206e-09
7.3528774e-09
7.3503965e-09
7.3494813e-09
7.3491754e-09
0.0011465778
0.0027693665
0.0036099391
0.0037993526
0.0032047176
0.0013631633
4.2160184e-05
4.8174389e-09
3.8588853e-09
3.8674599e-09
3.7680063e-09
3.8048743e-09
3.7766515e-09
3.8162349e-09
3.8285649e-09
3.8709671e-09
3.9083182e-09
3.9668931e-09
4.0329682e-09
4.1197008e-09
4.2216558e-09
4.3469846e-09
4.4953754e-09
4.6718554e-09
4.8754276e-09
5.1047558e-09
5.3533713e-09
5.6116403e-09
5.8661292e-09
6.1049644e-09
6.3172437e-09
6.4957573e-09
6.6418736e-09
6.7851981e-09
6.8792042e-09
6.9157047e-09
6.9181903e-09
6.9140099e-09
7.0522351e-09
7.2778967e-09
7.3992247e-09
7.4390753e-09
7.4378345e-09
7.3966883e-09
7.3718535e-09
7.3588477e-09
7.3528629e-09
7.3503983e-09
7.3494822e-09
7.3491763e-09
0.0011438072
0.0027439967
0.0035526307
0.0037024019
0.003066211
0.0011859099
1.6867675e-05
4.5197104e-09
3.8755147e-09
3.8861382e-09
3.7881985e-09
3.8261553e-09
3.7990844e-09
3.8398351e-09
3.8536523e-09
3.897651e-09
3.9370353e-09
3.9977942e-09
4.066479e-09
4.1561274e-09
4.2614328e-09
4.3903105e-09
4.5424332e-09
4.7224452e-09
4.9289748e-09
5.1599729e-09
5.408327e-09
5.6639603e-09
5.9136411e-09
6.1462303e-09
6.3514121e-09
6.5228724e-09
6.6651567e-09
6.8012948e-09
6.8832792e-09
6.9135568e-09
6.9142711e-09
6.9144861e-09
7.0875754e-09
7.3019257e-09
7.415013e-09
7.451365e-09
7.437859e-09
7.3964424e-09
7.3716097e-09
7.358726e-09
7.3528174e-09
7.3503858e-09
7.3494826e-09
7.349177e-09
0.0011411782
0.0027193424
0.0034960989
0.0036073282
0.0029211998
0.001019312
5.8368396e-06
4.3637734e-09
3.8956746e-09
3.9081782e-09
3.8118692e-09
3.8509596e-09
3.8252333e-09
3.8672364e-09
3.8826302e-09
3.9283822e-09
3.9698904e-09
4.0330338e-09
4.1046142e-09
4.1975097e-09
4.3065774e-09
4.4394765e-09
4.5958531e-09
4.7799192e-09
4.9898465e-09
5.2227538e-09
5.4707611e-09
5.7233138e-09
5.9674062e-09
6.1927052e-09
6.3896417e-09
6.5532317e-09
6.6909252e-09
6.8166397e-09
6.8880081e-09
6.9127777e-09
6.9125804e-09
6.9230617e-09
7.124044e-09
7.3255685e-09
7.4300503e-09
7.4629733e-09
7.4378386e-09
7.3960506e-09
7.3712828e-09
7.3585561e-09
7.3527486e-09
7.3503644e-09
7.3494787e-09
7.3491777e-09
0.0011385485
0.0026943658
0.0034401782
0.0035071624
0.0027688155
0.00086551434
1.8804738e-06
4.288168e-09
3.9191062e-09
3.9333037e-09
3.8387255e-09
3.8788961e-09
3.8545761e-09
3.897804e-09
3.9148845e-09
3.9624448e-09
4.0063058e-09
4.072036e-09
4.1467882e-09
4.2432747e-09
4.3565147e-09
4.4938942e-09
4.6550156e-09
4.8436122e-09
5.0573121e-09
5.2922992e-09
5.5398324e-09
5.788856e-09
6.0266209e-09
6.2436792e-09
6.4313588e-09
6.5862964e-09
6.7178832e-09
6.8317261e-09
6.8932927e-09
6.9124651e-09
6.9121962e-09
6.9394109e-09
7.1618508e-09
7.3483646e-09
7.4441731e-09
7.4736569e-09
7.4377104e-09
7.3954937e-09
7.3708754e-09
7.3583462e-09
7.3526609e-09
7.3503353e-09
7.3494726e-09
7.3491782e-09
0.0011361439
0.0026691377
0.0033821505
0.0034061318
0.0026079585
0.00072530031
6.0078213e-07
4.2572545e-09
3.9450294e-09
3.9608996e-09
3.868157e-09
3.9094382e-09
3.886679e-09
3.931192e-09
3.9500812e-09
3.9995858e-09
4.0459736e-09
4.1145231e-09
4.1927608e-09
4.2931737e-09
4.4109723e-09
4.553254e-09
4.7195568e-09
4.9130797e-09
5.1308186e-09
5.3679285e-09
5.6147515e-09
5.8597318e-09
6.090464e-09
6.2984438e-09
6.4760081e-09
6.6215324e-09
6.7454229e-09
6.8466636e-09
6.8994567e-09
6.9148985e-09
6.9150011e-09
6.9656569e-09
7.2003855e-09
7.3709461e-09
7.4566974e-09
7.4831622e-09
7.4370618e-09
7.3947678e-09
7.3703948e-09
7.358103e-09
7.35256e-09
7.3503018e-09
7.349465e-09
7.3491785e-09
0.001133935
0.0026438774
0.0033230631
0.0033035671
0.0024383501
0.0006014382
2.0166012e-07
4.2524404e-09
3.9732361e-09
3.9907228e-09
3.8999156e-09
3.9423658e-09
3.9212644e-09
3.9671412e-09
3.9879731e-09
4.0395783e-09
4.0887123e-09
4.1603286e-09
4.2423321e-09
4.3469924e-09
4.4697183e-09
4.6173007e-09
4.7891851e-09
4.9879685e-09
5.2099198e-09
5.4490857e-09
5.6948576e-09
5.9352269e-09
6.1582292e-09
6.3563662e-09
6.5230648e-09
6.6584263e-09
6.7731441e-09
6.8617793e-09
6.9067498e-09
6.9196727e-09
6.922074e-09
7.0003416e-09
7.2389041e-09
7.3936455e-09
7.4676617e-09
7.4905622e-09
7.4360994e-09
7.3938942e-09
7.3698515e-09
7.3578344e-09
7.3524501e-09
7.3502655e-09
7.3494568e-09
7.3491788e-09
0.001131759
0.0026185188
0.0032636991
0.0032007139
0.0022607785
0.00048853816
7.43033e-08
4.2622821e-09
4.0035044e-09
4.0224415e-09
3.9338592e-09
3.9774574e-09
3.958251e-09
4.0055003e-09
4.0285024e-09
4.0823308e-09
4.1344704e-09
4.20939e-09
4.2954542e-09
4.4046798e-09
4.5326951e-09
4.6859614e-09
4.86379e-09
5.0680961e-09
5.2943198e-09
5.5353356e-09
5.7795806e-09
6.0146937e-09
6.2292544e-09
6.4168421e-09
6.5720229e-09
6.6965317e-09
6.8009566e-09
6.8775597e-09
6.9156013e-09
6.9272557e-09
6.9326499e-09
7.0408362e-09
7.276081e-09
7.4170815e-09
7.4779827e-09
7.4946605e-09
7.4348728e-09
7.392896e-09
7.3692555e-09
7.3575467e-09
7.3523348e-09
7.3502281e-09
7.3494485e-09
7.349179e-09
0.0011295508
0.0025923122
0.0032029185
0.0030963873
0.0020763833
0.00038627358
3.1614233e-08
4.2818409e-09
4.0358285e-09
4.0562409e-09
3.9699393e-09
4.0147384e-09
3.9975281e-09
4.0463006e-09
4.0716022e-09
4.1278936e-09
4.1832229e-09
4.2616649e-09
4.3520636e-09
4.4661647e-09
4.5998227e-09
4.7591391e-09
4.9432374e-09
5.1532597e-09
5.3837102e-09
5.6262448e-09
5.8683822e-09
6.0975217e-09
6.3029222e-09
6.4793163e-09
6.6224163e-09
6.7354596e-09
6.8288419e-09
6.8945418e-09
6.9265823e-09
6.936935e-09
6.9479014e-09
7.0838367e-09
7.3111779e-09
7.4410517e-09
7.4898451e-09
7.4962427e-09
7.4334271e-09
7.3917901e-09
7.3686156e-09
7.3572461e-09
7.352217e-09
7.3501907e-09
7.3494403e-09
7.3491792e-09
0.0011272538
0.0025651566
0.0031397511
0.0029833137
0.0018871509
0.00029358271
1.6068347e-08
4.3070866e-09
4.0699795e-09
4.0918794e-09
4.0080332e-09
4.054115e-09
4.03916e-09
4.0895383e-09
4.1173708e-09
4.1762087e-09
4.2349617e-09
4.317162e-09
4.4121878e-09
4.5314929e-09
4.6711581e-09
4.8368847e-09
5.0275414e-09
5.2433934e-09
5.4779054e-09
5.7214769e-09
5.9607962e-09
6.183142e-09
6.3786364e-09
6.5432539e-09
6.6738041e-09
6.7748893e-09
6.8568444e-09
6.9129794e-09
6.9401226e-09
6.9486346e-09
6.9679104e-09
7.1268079e-09
7.3439507e-09
7.4639339e-09
7.5042896e-09
7.4964598e-09
7.4318169e-09
7.390584e-09
7.3679399e-09
7.356938e-09
7.352099e-09
7.350154e-09
7.3494324e-09
7.3491793e-09
0.0011248318
0.0025368595
0.0030748009
0.0028705905
0.00169647
0.00020958442
9.8383376e-09
4.33628e-09
4.1060161e-09
4.1294451e-09
4.0482716e-09
4.0957405e-09
4.083181e-09
4.1352777e-09
4.1657522e-09
4.2273424e-09
4.2896968e-09
4.3758818e-09
4.4758318e-09
4.6006749e-09
4.7467108e-09
4.9191902e-09
5.1166491e-09
5.3383568e-09
5.5766476e-09
5.8206403e-09
6.0563098e-09
6.2709669e-09
6.4558081e-09
6.6081693e-09
6.7258073e-09
6.8145661e-09
6.885017e-09
6.9328424e-09
6.9559602e-09
6.962961e-09
6.9933446e-09
7.1695551e-09
7.3743618e-09
7.484867e-09
7.5206898e-09
7.496314e-09
7.4300744e-09
7.3892786e-09
7.3672379e-09
7.3566272e-09
7.3519825e-09
7.3501185e-09
7.3494251e-09
7.3491794e-09
0.0011222545
0.0025074261
0.0030046541
0.0027567169
0.0015060963
0.00013383481
7.0895231e-09
4.3682266e-09
4.1440941e-09
4.1691048e-09
4.0907559e-09
4.139648e-09
4.1296615e-09
4.1834898e-09
4.2168024e-09
4.2812337e-09
4.3474374e-09
4.4378795e-09
4.543083e-09
4.6738276e-09
4.8266071e-09
5.0061759e-09
5.2106294e-09
5.438127e-09
5.6797705e-09
5.9234224e-09
6.1544593e-09
6.3604466e-09
6.5338888e-09
6.6736158e-09
6.7780767e-09
6.8542809e-09
6.9134219e-09
6.9539524e-09
6.9738598e-09
6.9802225e-09
7.0240173e-09
7.212398e-09
7.402646e-09
7.5036281e-09
7.5359197e-09
7.4948606e-09
7.4280174e-09
7.3878791e-09
7.3665207e-09
7.3563179e-09
7.3518688e-09
7.3500846e-09
7.3494185e-09
7.3491799e-09
0.0011197134
0.0024784189
0.0029356221
0.0026402633
0.001319002
7.0935369e-05
5.7987428e-09
4.4024569e-09
4.1843717e-09
4.2109346e-09
4.1355132e-09
4.1858358e-09
4.1785064e-09
4.2341721e-09
4.2704424e-09
4.3379519e-09
4.408237e-09
4.5032152e-09
4.6140127e-09
4.7510241e-09
4.9109167e-09
5.0978799e-09
5.3094603e-09
5.5425704e-09
5.7870017e-09
6.0294037e-09
6.254705e-09
6.4509988e-09
6.6123885e-09
6.7392097e-09
6.830281e-09
6.8938676e-09
6.942182e-09
6.9762672e-09
6.993504e-09
7.0005849e-09
7.0592382e-09
7.2557223e-09
7.4290963e-09
7.5196365e-09
7.5488577e-09
7.4918578e-09
7.425628e-09
7.3864172e-09
7.3657991e-09
7.3560133e-09
7.3517587e-09
7.3500523e-09
7.3494123e-09
7.3491806e-09
0.0011170838
0.0024489214
0.0028665433
0.0025187634
0.0011379242
2.9129918e-05
5.1769141e-09
4.4385967e-09
4.2267248e-09
4.2547742e-09
4.1823736e-09
4.2341588e-09
4.2296862e-09
4.2872705e-09
4.326751e-09
4.3975074e-09
4.4721728e-09
4.5720056e-09
4.6887674e-09
4.8324338e-09
4.9998143e-09
5.1944548e-09
5.4132245e-09
5.6516493e-09
5.8981411e-09
6.1382066e-09
6.3565473e-09
6.5421238e-09
6.6909568e-09
6.804601e-09
6.8820247e-09
6.9331325e-09
6.9713603e-09
6.9997692e-09
7.014387e-09
7.023938e-09
7.0975482e-09
7.2993477e-09
7.4543834e-09
7.5330992e-09
7.5584403e-09
7.4881443e-09
7.4230318e-09
7.3849234e-09
7.3650812e-09
7.3557157e-09
7.3516529e-09
7.3500219e-09
7.3494068e-09
7.3491815e-09
0.0011143137
0.0024183918
0.002794706
0.002390607
0.00096588613
9.3664693e-06
4.88314e-09
4.4775472e-09
4.2708394e-09
4.3004325e-09
4.2312682e-09
4.2846258e-09
4.2831929e-09
4.342865e-09
4.3857561e-09
4.4600438e-09
4.5393564e-09
4.6443688e-09
4.7674678e-09
4.9181807e-09
5.093407e-09
5.2959653e-09
5.5218918e-09
5.7651928e-09
6.0128424e-09
6.249325e-09
6.459407e-09
6.6333823e-09
6.7694015e-09
6.8694455e-09
6.932849e-09
6.9719141e-09
7.0009669e-09
7.0242939e-09
7.0362774e-09
7.0499284e-09
7.1386532e-09
7.3422432e-09
7.4794611e-09
7.5447822e-09
7.5631124e-09
7.484048e-09
7.4203171e-09
7.3834197e-09
7.3643734e-09
7.3554269e-09
7.3515518e-09
7.3499934e-09
7.3494018e-09
7.3491823e-09
0.0011114277
0.0023872991
0.0027207464
0.0022562701
0.00080551874
2.5927943e-06
4.7544078e-09
4.5187342e-09
4.316806e-09
4.3480373e-09
4.2822668e-09
4.3373097e-09
4.3391298e-09
4.4010366e-09
4.4475972e-09
4.5256405e-09
4.609922e-09
4.7204682e-09
4.8503076e-09
5.0084744e-09
5.191905e-09
5.4025779e-09
5.6355311e-09
5.8831046e-09
6.1308091e-09
6.3623004e-09
6.5628171e-09
6.7245343e-09
6.8476028e-09
6.9332682e-09
6.9823128e-09
7.0100352e-09
7.0308195e-09
7.0494573e-09
7.058985e-09
7.0775441e-09
7.1816143e-09
7.3827323e-09
7.504626e-09
7.555999e-09
7.5646054e-09
7.4796982e-09
7.4175373e-09
7.3819206e-09
7.36368e-09
7.3551483e-09
7.3514557e-09
7.3499667e-09
7.3493974e-09
7.3491834e-09
0.0011085532
0.0023562039
0.0026448487
0.0021178127
0.0006591227
6.8985409e-07
4.7108176e-09
4.5615662e-09
4.3647675e-09
4.3976556e-09
4.3354997e-09
4.3923009e-09
4.3975956e-09
4.4618893e-09
4.5123737e-09
4.5944427e-09
4.684016e-09
4.8004622e-09
4.9374498e-09
5.1034761e-09
5.2954416e-09
5.5143559e-09
5.7540712e-09
6.0051203e-09
6.2515739e-09
6.4765533e-09
6.6663479e-09
6.8154286e-09
6.9251076e-09
6.9953096e-09
7.0303197e-09
7.047423e-09
7.0607493e-09
7.074996e-09
7.0823329e-09
7.1057546e-09
7.2260089e-09
7.4190819e-09
7.5285663e-09
7.5684272e-09
7.5646912e-09
7.4752172e-09
7.4147304e-09
7.380437e-09
7.3630048e-09
7.3548808e-09
7.3513647e-09
7.349942e-09
7.3493936e-09
7.3491847e-09
0.0011057807
0.002325628
0.0025684896
0.0019707668
0.00052863622
1.9924135e-07
4.7110507e-09
4.6063582e-09
4.4147284e-09
4.449454e-09
4.3910013e-09
4.4497345e-09
4.4586748e-09
4.5255519e-09
4.580213e-09
4.6665796e-09
4.7618057e-09
4.8845556e-09
5.0291259e-09
5.2034329e-09
5.4042458e-09
5.631455e-09
5.8775127e-09
6.1310246e-09
6.3747135e-09
6.5916225e-09
6.7697986e-09
6.9059291e-09
7.0008926e-09
7.0551735e-09
7.0767408e-09
7.0840113e-09
7.0905167e-09
7.1006203e-09
7.106149e-09
7.1349151e-09
7.2695913e-09
7.4516854e-09
7.5499742e-09
7.5843092e-09
7.5641187e-09
7.4707045e-09
7.411919e-09
7.3789761e-09
7.3623507e-09
7.3546253e-09
7.3512789e-09
7.3499192e-09
7.3493904e-09
7.3491862e-09
0.0011031461
0.0022955842
0.0024998369
0.0018153379
0.00041785542
6.997313e-08
4.7343224e-09
4.6530504e-09
4.4668519e-09
4.5034369e-09
4.4489239e-09
4.5096741e-09
4.5224906e-09
4.5921256e-09
4.6512576e-09
4.7422271e-09
4.8434767e-09
4.9729459e-09
5.125539e-09
5.308538e-09
5.5184604e-09
5.7539031e-09
6.0056811e-09
6.2604025e-09
6.4996485e-09
6.7070582e-09
6.8730107e-09
6.9954186e-09
7.0739832e-09
7.1123917e-09
7.1216154e-09
7.1197226e-09
7.1200631e-09
7.1261524e-09
7.1303699e-09
7.1659283e-09
7.3117495e-09
7.4810988e-09
7.5701166e-09
7.6005131e-09
7.5603398e-09
7.4662573e-09
7.40911e-09
7.3775446e-09
7.3617207e-09
7.3543823e-09
7.3511983e-09
7.3498981e-09
7.3493877e-09
7.3491879e-09
0.0011004561
0.0022639563
0.0024247621
0.0016510313
0.00031806338
2.9656581e-08
4.7697586e-09
4.7017414e-09
4.5211979e-09
4.5597644e-09
4.5093386e-09
4.5722455e-09
4.5891462e-09
4.6617578e-09
4.7256518e-09
4.821552e-09
4.9292431e-09
5.0658813e-09
5.2269658e-09
5.4190656e-09
5.6383245e-09
5.8817996e-09
6.1384625e-09
6.3928801e-09
6.625932e-09
6.8226686e-09
6.9758234e-09
7.0826237e-09
7.1437231e-09
7.166963e-09
7.1649531e-09
7.1542693e-09
7.1493702e-09
7.1513902e-09
7.1549636e-09
7.1993347e-09
7.3527437e-09
7.5080738e-09
7.5881279e-09
7.6145249e-09
7.553887e-09
7.4615722e-09
7.4063018e-09
7.376151e-09
7.3611173e-09
7.354152e-09
7.3511227e-09
7.3498787e-09
7.3493856e-09
7.3491898e-09
0.0010979316
0.0022317973
0.002349996
0.001481058
0.00022901644
1.5624136e-08
4.8129683e-09
4.752661e-09
4.5778713e-09
4.6185035e-09
4.5723383e-09
4.6375306e-09
4.6587598e-09
4.7345763e-09
4.8035758e-09
4.9047779e-09
5.0193326e-09
5.1636083e-09
5.3336464e-09
5.5352387e-09
5.7639592e-09
6.0150882e-09
6.2755174e-09
6.5279077e-09
6.7530706e-09
6.9382923e-09
7.0774097e-09
7.1664391e-09
7.2096711e-09
7.2199689e-09
7.2063099e-09
7.1873811e-09
7.1781567e-09
7.1763368e-09
7.1800594e-09
7.2343303e-09
7.3930503e-09
7.5328812e-09
7.6030324e-09
7.6246594e-09
7.5462159e-09
7.4566925e-09
7.4035261e-09
7.3748054e-09
7.360542e-09
7.3539345e-09
7.3510519e-09
7.349861e-09
7.3493841e-09
7.349192e-09
0.0010955639
0.0021984436
0.0022727391
0.0013087046
0.00014937011
1.0108691e-08
4.8610685e-09
4.8056143e-09
4.6368294e-09
4.6796842e-09
4.6380065e-09
4.7056584e-09
4.7314748e-09
4.8107679e-09
4.8852243e-09
4.9921217e-09
5.1140076e-09
5.2664233e-09
5.4458988e-09
5.6573558e-09
5.8955664e-09
6.1537497e-09
6.4165472e-09
6.6650367e-09
6.8808172e-09
7.0537793e-09
7.1763775e-09
7.2461882e-09
7.2726601e-09
7.2709123e-09
7.245507e-09
7.2192646e-09
7.2058783e-09
7.2010686e-09
7.2057922e-09
7.270198e-09
7.4326127e-09
7.5560134e-09
7.6149299e-09
7.6300214e-09
7.5381452e-09
7.4517464e-09
7.400816e-09
7.3735145e-09
7.3599957e-09
7.3537294e-09
7.3509859e-09
7.3498448e-09
7.349383e-09
7.3491943e-09
0.0010932344
0.0021632801
0.0021928328
0.0011441755
8.264265e-05
7.7208954e-09
4.9126912e-09
4.8608498e-09
4.6982309e-09
4.7434977e-09
4.7065095e-09
4.7767827e-09
4.8074608e-09
4.8905186e-09
4.9708337e-09
5.0838493e-09
5.2135489e-09
5.3746172e-09
5.5640118e-09
5.7856375e-09
6.0332027e-09
6.2975496e-09
6.5610306e-09
6.8037183e-09
7.008951e-09
7.1681266e-09
7.2715563e-09
7.3214482e-09
7.3336146e-09
7.3191842e-09
7.2825167e-09
7.2497639e-09
7.232606e-09
7.2255386e-09
7.2325109e-09
7.3074196e-09
7.4704594e-09
7.5778203e-09
7.6247135e-09
7.6314341e-09
7.5299245e-09
7.4468359e-09
7.3981962e-09
7.3722828e-09
7.3594784e-09
7.3535364e-09
7.3509245e-09
7.3498301e-09
7.3493823e-09
7.3491969e-09
0.0010904598
0.0021228395
0.0021082275
0.00098877471
3.5940838e-05
6.6171182e-09
4.9673948e-09
4.9185682e-09
4.762276e-09
4.8100586e-09
4.7779787e-09
4.851061e-09
4.8869163e-09
4.9740618e-09
5.0606451e-09
5.1802395e-09
5.3182727e-09
5.4885493e-09
5.6883408e-09
5.9203805e-09
6.1769636e-09
6.446285e-09
6.7085277e-09
6.9436096e-09
7.1373576e-09
7.279858e-09
7.3621236e-09
7.3932331e-09
7.3920022e-09
7.3646154e-09
7.3172572e-09
7.2787436e-09
7.2583759e-09
7.2497195e-09
7.2603496e-09
7.3462984e-09
7.5051322e-09
7.5980542e-09
7.6347229e-09
7.6313678e-09
7.5217448e-09
7.4420332e-09
7.3956815e-09
7.3711115e-09
7.3589895e-09
7.3533551e-09
7.3508673e-09
7.3498168e-09
7.349382e-09
7.3491998e-09
0.0010872045
0.0020780526
0.0020175639
0.0008432778
1.2179311e-05
6.0995006e-09
5.0246582e-09
4.9787322e-09
4.828974e-09
4.8794865e-09
4.8525628e-09
4.928718e-09
4.970057e-09
5.0615995e-09
5.1549402e-09
5.2816039e-09
5.4285249e-09
5.6085704e-09
5.8192053e-09
6.0617566e-09
6.3267478e-09
6.5995015e-09
6.8584579e-09
7.0843385e-09
7.2651665e-09
7.3875619e-09
7.4475269e-09
7.4625295e-09
7.447181e-09
7.4071109e-09
7.3496778e-09
7.3061588e-09
7.2832354e-09
7.2736007e-09
7.2893865e-09
7.3862725e-09
7.5358782e-09
7.6170054e-09
7.6473869e-09
7.6304768e-09
7.513812e-09
7.4373954e-09
7.3932795e-09
7.3700002e-09
7.3585283e-09
7.3531852e-09
7.3508142e-09
7.3498048e-09
7.3493823e-09
7.3492029e-09
0.0010832557
0.0020279067
0.0019168679
0.00070853915
3.4762546e-06
5.8672987e-09
5.0844863e-09
5.041396e-09
4.8985119e-09
4.9519641e-09
4.9305477e-09
5.009961e-09
5.0571435e-09
5.1533775e-09
5.2540001e-09
5.3882973e-09
5.5447029e-09
5.7351057e-09
5.9569776e-09
6.209994e-09
6.4824606e-09
6.756821e-09
7.0104186e-09
7.2257769e-09
7.3907995e-09
7.4903142e-09
7.5288806e-09
7.5286434e-09
7.4990654e-09
7.4466303e-09
7.3797301e-09
7.3319759e-09
7.3071864e-09
7.297127e-09
7.3196229e-09
7.4255024e-09
7.5639809e-09
7.6359085e-09
7.6611529e-09
7.6255859e-09
7.5062945e-09
7.4329497e-09
7.3909883e-09
7.3689472e-09
7.358094e-09
7.3530261e-09
7.3507649e-09
7.3497941e-09
7.349383e-09
7.3492062e-09
0.0010786196
0.0019724582
0.0017992652
0.00058566861
9.3767184e-07
5.7793193e-09
5.1471508e-09
5.106865e-09
4.9711492e-09
5.0278275e-09
5.012151e-09
5.0950312e-09
5.1483745e-09
5.2498115e-09
5.3581883e-09
5.5007318e-09
5.6672394e-09
5.8685546e-09
6.1019615e-09
6.3651195e-09
6.6437707e-09
6.917642e-09
7.1639351e-09
7.3674347e-09
7.5124105e-09
7.5872905e-09
7.6071988e-09
7.5909379e-09
7.5475355e-09
7.4831545e-09
7.4074101e-09
7.3562308e-09
7.3302124e-09
7.3202368e-09
7.3506062e-09
7.4635891e-09
7.5896877e-09
7.6531558e-09
7.6735755e-09
7.6170305e-09
7.4992562e-09
7.428675e-09
7.3888015e-09
7.3679513e-09
7.3576859e-09
7.3528773e-09
7.3507192e-09
7.3497845e-09
7.3493841e-09
7.3492099e-09
0.001073539
0.0019137213
0.001668713
0.0004742491
2.678802e-07
5.7653451e-09
5.2127888e-09
5.1756146e-09
5.0471577e-09
5.107215e-09
5.0975385e-09
5.1841032e-09
5.2440378e-09
5.3512481e-09
5.4679279e-09
5.6193709e-09
5.7966114e-09
6.0093715e-09
6.2544854e-09
6.5271798e-09
6.8103591e-09
7.0815257e-09
7.3187243e-09
7.5077072e-09
7.6290071e-09
7.6794369e-09
7.6818521e-09
7.6493137e-09
7.5925503e-09
7.516636e-09
7.4327779e-09
7.3789802e-09
7.3522872e-09
7.3427587e-09
7.3801348e-09
7.5005324e-09
7.6130378e-09
7.6676445e-09
7.6830074e-09
7.6058335e-09
7.4921636e-09
7.4245301e-09
7.3867175e-09
7.3670119e-09
7.3573033e-09
7.3527384e-09
7.3506769e-09
7.349776e-09
7.3493856e-09
7.3492138e-09
0.0010680517
0.0018523858
0.0015276189
0.00037556767
9.1162225e-08
5.7898125e-09
5.2815365e-09
5.2475648e-09
5.1265851e-09
5.1901831e-09
5.1868725e-09
5.2774681e-09
5.3444997e-09
5.4580837e-09
5.5837083e-09
5.7447201e-09
5.9332957e-09
6.1579622e-09
6.4147285e-09
6.6959675e-09
6.9816549e-09
7.2478689e-09
7.4743351e-09
7.6446628e-09
7.7394004e-09
7.7677924e-09
7.7521401e-09
7.7036619e-09
7.6340404e-09
7.5469554e-09
7.4559851e-09
7.4003375e-09
7.3734512e-09
7.3646049e-09
7.4082657e-09
7.5360505e-09
7.6340411e-09
7.6789885e-09
7.6879813e-09
7.5937737e-09
7.4850424e-09
7.4205295e-09
7.3847413e-09
7.3661293e-09
7.3569453e-09
7.352609e-09
7.3506379e-09
7.3497686e-09
7.3493875e-09
7.3492181e-09
0.0010621345
0.0017872124
0.001388389
0.00028900223
3.8611166e-08
5.8340185e-09
5.353074e-09
5.3227343e-09
5.2095411e-09
5.2769627e-09
5.2805017e-09
5.3755778e-09
5.4502732e-09
5.5708491e-09
5.706051e-09
5.8772966e-09
6.0778068e-09
6.314758e-09
6.5828758e-09
6.8712846e-09
7.1572058e-09
7.4162568e-09
7.6298005e-09
7.7767052e-09
7.8439069e-09
7.85227e-09
7.81778e-09
7.7539863e-09
7.6719656e-09
7.573981e-09
7.4772263e-09
7.4204072e-09
7.3938564e-09
7.3860664e-09
7.4387725e-09
7.5691505e-09
7.6525682e-09
7.6880769e-09
7.6893304e-09
7.5815558e-09
7.4780083e-09
7.4167019e-09
7.3828777e-09
7.3653024e-09
7.3566109e-09
7.3524883e-09
7.3506019e-09
7.3497622e-09
7.3493898e-09
7.3492227e-09
0.0010561299
0.0017142396
0.0012492118
0.00021035268
2.0004004e-08
5.8888734e-09
5.4275822e-09
5.4012226e-09
5.2963958e-09
5.3680511e-09
5.3790156e-09
5.4789761e-09
5.5619099e-09
5.6900833e-09
5.8354911e-09
6.0176418e-09
6.2306396e-09
6.4800852e-09
6.7588753e-09
7.0526397e-09
7.3363699e-09
7.5861581e-09
7.7829994e-09
7.9024835e-09
7.9434991e-09
7.9319704e-09
7.8787068e-09
7.8002657e-09
7.7062911e-09
7.5977379e-09
7.4966411e-09
7.439311e-09
7.4137523e-09
7.4076989e-09
7.4718886e-09
7.5986737e-09
7.6693209e-09
7.6970917e-09
7.6890069e-09
7.5694806e-09
7.4711752e-09
7.4130739e-09
7.3811295e-09
7.3645296e-09
7.3562987e-09
7.352376e-09
7.3505687e-09
7.3497568e-09
7.3493925e-09
7.3492276e-09
0.0010517856
0.0016509861
0.0011099467
0.00013927546
1.2670518e-08
5.9504458e-09
5.5054119e-09
5.4839195e-09
5.3877773e-09
5.4641739e-09
5.4829803e-09
5.5882368e-09
5.6799107e-09
5.8163017e-09
5.9725749e-09
6.1663203e-09
6.3923292e-09
6.654265e-09
6.942671e-09
7.2395926e-09
7.5186574e-09
7.7571222e-09
7.9318611e-09
8.0213063e-09
8.0390521e-09
8.0062524e-09
7.9349393e-09
7.8425611e-09
7.7370269e-09
7.6184637e-09
7.5143474e-09
7.4572264e-09
7.4331775e-09
7.4298438e-09
7.505771e-09
7.6245026e-09
7.6854271e-09
7.7080937e-09
7.6878685e-09
7.5578087e-09
7.4646421e-09
7.4096642e-09
7.3794956e-09
7.3638082e-09
7.3560072e-09
7.3522714e-09
7.3505383e-09
7.3497524e-09
7.3493957e-09
7.349233e-09
0.0010477729
0.0015830229
0.00097145433
7.8265455e-05
9.4610283e-09
6.0166343e-09
5.5876302e-09
5.5716177e-09
5.4844318e-09
5.5657947e-09
5.5929005e-09
5.7037913e-09
5.8047576e-09
5.9500586e-09
6.1178889e-09
6.3239308e-09
6.5633381e-09
6.8374337e-09
7.1338866e-09
7.4314728e-09
7.7033166e-09
7.9272396e-09
8.0746798e-09
8.1340044e-09
8.1294412e-09
8.0750895e-09
7.9864924e-09
7.8808916e-09
7.7641608e-09
7.6363714e-09
7.5305773e-09
7.4744473e-09
7.4518282e-09
7.4528652e-09
7.5389083e-09
7.6479366e-09
7.7010414e-09
7.719454e-09
7.6832907e-09
7.5468673e-09
7.4585027e-09
7.4064807e-09
7.3779709e-09
7.3631346e-09
7.3557352e-09
7.352174e-09
7.3505104e-09
7.3497489e-09
7.3493994e-09
7.3492388e-09
0.0010446799
0.0015119532
0.00083735432
3.4683563e-05
7.9779455e-09
6.0868058e-09
5.6747618e-09
5.664668e-09
5.5867067e-09
5.6732266e-09
5.7091306e-09
5.8260963e-09
5.9369935e-09
6.0919536e-09
6.2720785e-09
6.4910935e-09
6.7441477e-09
7.0296777e-09
7.3321933e-09
7.6277516e-09
7.8898858e-09
8.0942602e-09
8.210028e-09
8.2418831e-09
8.2139167e-09
8.1384578e-09
8.0334866e-09
7.9153429e-09
7.7876958e-09
7.6516894e-09
7.5454923e-09
7.4910716e-09
7.469542e-09
7.4769134e-09
7.5707889e-09
7.6694186e-09
7.7155612e-09
7.7294355e-09
7.6751936e-09
7.5369091e-09
7.4528023e-09
7.4035121e-09
7.376546e-09
7.362505e-09
7.3554813e-09
7.3520835e-09
7.350485e-09
7.3497465e-09
7.3494035e-09
7.349245e-09
0.001042885
0.0014368928
0.00071003284
1.1947486e-05
7.2873901e-09
6.1619747e-09
5.7668047e-09
5.7630735e-09
5.6947851e-09
5.7867617e-09
5.8321146e-09
5.9557072e-09
6.077256e-09
6.2426921e-09
6.4358491e-09
6.668437e-09
6.9350656e-09
7.2308163e-09
7.5369161e-09
7.8276534e-09
8.0772659e-09
8.2556165e-09
8.3379552e-09
8.3444169e-09
8.292075e-09
8.1963679e-09
8.0760041e-09
7.9460116e-09
7.8077407e-09
7.6645916e-09
7.5591514e-09
7.5069808e-09
7.4866452e-09
7.5018361e-09
7.6015297e-09
7.6888087e-09
7.7282285e-09
7.7376915e-09
7.6636789e-09
7.5280804e-09
7.4475039e-09
7.4007302e-09
7.3752107e-09
7.3619162e-09
7.3552447e-09
7.3519997e-09
7.3504619e-09
7.3497449e-09
7.349408e-09
7.3492518e-09
0.0010427189
0.0013608934
0.00059137424
3.4565205e-06
6.9821291e-09
6.2455301e-09
5.8638893e-09
5.8671337e-09
5.8090848e-09
5.9069485e-09
5.9624668e-09
6.0933157e-09
6.2262619e-09
6.4030247e-09
6.6099339e-09
6.8565718e-09
7.1363629e-09
7.4406184e-09
7.7475345e-09
8.030498e-09
8.2630841e-09
8.4097342e-09
8.4596126e-09
8.4406896e-09
8.3639496e-09
8.2489524e-09
8.1142184e-09
7.9730881e-09
7.8246723e-09
7.6752668e-09
7.5716495e-09
7.5221852e-09
7.5034296e-09
7.5275378e-09
7.630821e-09
7.7060746e-09
7.7381749e-09
7.7415792e-09
7.6498647e-09
7.5196491e-09
7.4424791e-09
7.3981059e-09
7.3739577e-09
7.3613659e-09
7.3550243e-09
7.3519224e-09
7.3504411e-09
7.3497441e-09
7.3494132e-09
7.3492592e-09
0.0010434561
0.0012784005
0.00048215135
9.4947321e-07
6.8664982e-09
6.3331502e-09
5.9666775e-09
5.9775781e-09
5.9302607e-09
6.0344803e-09
6.1009148e-09
6.2396732e-09
6.3848116e-09
6.573763e-09
6.7951026e-09
7.0559967e-09
7.3480437e-09
7.658486e-09
7.9631979e-09
8.2352997e-09
8.4444644e-09
8.55521e-09