/*--------------------------------*- C++ -*----------------------------------*\
  =========                 |
  \\      /  F ield         | OpenFOAM: The Open Source CFD Toolbox
   \\    /   O peration     | Website:  https://openfoam.org
    \\  /    A nd           | Version:  8
     \\/     M anipulation  |
\*---------------------------------------------------------------------------*/
FoamFile
{
    version     2.0;
    format      ascii;
    class       volScalarField;
    location    "0.0199971";
    object      nuTilda;
}
// * * * * * * * * * * * * * * * * * * * * * * * * * * * * * * * * * * * * * //

dimensions      [0 2 -1 0 0 0 0];

internalField   nonuniform List<scalar> 
20000
(
0.0011743884
0.0029658042
0.004024931
0.0044646398
0.0041400851
0.002775027
0.00060135792
2.2917004e-05
1.0139709e-05
1.0113229e-05
1.0042628e-05
1.0053646e-05
1.0018751e-05
1.0024187e-05
1.0014248e-05
1.0014072e-05
1.0009119e-05
1.0007712e-05
1.0005793e-05
1.0004994e-05
1.0004099e-05
1.0003414e-05
1.0002928e-05
1.000272e-05
1.0002602e-05
1.000244e-05
1.0002373e-05
1.0002529e-05
1.0002704e-05
1.0002634e-05
1.0002312e-05
1.0002295e-05
1.000269e-05
1.0002778e-05
1.0002903e-05
1.0003837e-05
1.0004235e-05
1.0003077e-05
1.0003726e-05
1.0001743e-05
1.0001227e-05
1.0000569e-05
1.00002e-05
1.0000064e-05
1.000003e-05
1.0000014e-05
1.0000006e-05
1.0000002e-05
1e-05
1e-05
0.0011616072
0.0029243512
0.0039586801
0.0043685249
0.0040075483
0.0025826618
0.00050270579
1.8667093e-05
1.0132197e-05
1.011334e-05
1.0042167e-05
1.0053787e-05
1.0018458e-05
1.0024102e-05
1.0014094e-05
1.0013978e-05
1.0009097e-05
1.00077e-05
1.0005805e-05
1.0005024e-05
1.0004142e-05
1.0003449e-05
1.0002942e-05
1.0002712e-05
1.0002584e-05
1.0002423e-05
1.0002356e-05
1.0002518e-05
1.0002703e-05
1.0002646e-05
1.0002293e-05
1.0002239e-05
1.0002621e-05
1.0002735e-05
1.0002828e-05
1.0003682e-05
1.0004014e-05
1.0002989e-05
1.0003681e-05
1.0001701e-05
1.0001256e-05
1.0000449e-05
1.0000183e-05
1.0000044e-05
1.0000018e-05
1.0000007e-05
1.0000002e-05
1.0000001e-05
1e-05
1e-05
0.0011611514
0.0029010077
0.0039020783
0.004274686
0.0038697428
0.0023694237
0.0004058907
1.5616539e-05
1.0126785e-05
1.0112664e-05
1.0041715e-05
1.0053801e-05
1.0018127e-05
1.0023844e-05
1.001392e-05
1.0013843e-05
1.0009037e-05
1.0007657e-05
1.0005794e-05
1.0005035e-05
1.0004166e-05
1.0003466e-05
1.0002939e-05
1.000269e-05
1.0002553e-05
1.0002399e-05
1.0002341e-05
1.0002505e-05
1.0002685e-05
1.0002629e-05
1.0002272e-05
1.000221e-05
1.0002604e-05
1.0002726e-05
1.0002792e-05
1.0003612e-05
1.0004031e-05
1.0002918e-05
1.0003155e-05
1.0001699e-05
1.0001152e-05
1.0000416e-05
1.0000182e-05
1.0000041e-05
1.0000018e-05
1.0000007e-05
1.0000003e-05
1.0000001e-05
1e-05
1e-05
0.0011588304
0.0028746668
0.003843702
0.0041817182
0.0037370942
0.0021616467
0.00032527585
1.3616517e-05
1.0122559e-05
1.0111496e-05
1.0041008e-05
1.0051719e-05
1.0017685e-05
1.0023604e-05
1.001375e-05
1.0013698e-05
1.0008983e-05
1.0007614e-05
1.0005788e-05
1.0005049e-05
1.0004195e-05
1.0003487e-05
1.0002941e-05
1.0002673e-05
1.0002529e-05
1.0002379e-05
1.0002328e-05
1.0002497e-05
1.0002676e-05
1.0002622e-05
1.0002261e-05
1.0002186e-05
1.0002563e-05
1.0002701e-05
1.0002751e-05
1.0003504e-05
1.0003957e-05
1.0002849e-05
1.0002597e-05
1.0001695e-05
1.0000943e-05
1.0000397e-05
1.0000175e-05
1.0000044e-05
1.0000019e-05
1.0000007e-05
1.0000002e-05
1.0000001e-05
1e-05
1e-05
0.0011568083
0.0028480803
0.0037852904
0.0040883512
0.0036056483
0.0019532404
0.00025676788
1.2319022e-05
1.0119488e-05
1.0108243e-05
1.0037525e-05
1.0048121e-05
1.0017484e-05
1.0023338e-05
1.0013583e-05
1.0013545e-05
1.0008925e-05
1.0007568e-05
1.000578e-05
1.0005062e-05
1.0004223e-05
1.0003509e-05
1.0002942e-05
1.0002656e-05
1.0002505e-05
1.0002361e-05
1.0002318e-05
1.000249e-05
1.0002667e-05
1.0002613e-05
1.0002248e-05
1.0002164e-05
1.0002529e-05
1.0002683e-05
1.0002717e-05
1.0003399e-05
1.0003886e-05
1.0002817e-05
1.0002239e-05
1.0001693e-05
1.0000824e-05
1.0000389e-05
1.0000174e-05
1.0000044e-05
1.0000019e-05
1.0000007e-05
1.0000002e-05
1.0000001e-05
1e-05
1e-05
0.0011544926
0.002821854
0.0037268615
0.0039937744
0.0034732986
0.0017484801
0.00019954671
1.149711e-05
1.0116773e-05
1.0105921e-05
1.0036996e-05
1.004488e-05
1.0017142e-05
1.0023055e-05
1.0013422e-05
1.0013388e-05
1.0008869e-05
1.0007522e-05
1.0005775e-05
1.0005077e-05
1.0004254e-05
1.0003532e-05
1.0002946e-05
1.0002642e-05
1.0002485e-05
1.0002345e-05
1.0002309e-05
1.0002485e-05
1.0002659e-05
1.0002604e-05
1.0002235e-05
1.0002144e-05
1.0002493e-05
1.0002664e-05
1.0002686e-05
1.0003282e-05
1.000376e-05
1.0002756e-05
1.0001984e-05
1.000171e-05
1.0000765e-05
1.0000341e-05
1.0000171e-05
1.0000044e-05
1.0000019e-05
1.0000007e-05
1.0000002e-05
1.0000001e-05
1e-05
1e-05
0.0011516473
0.0027951574
0.0036680779
0.0038975892
0.0033402549
0.0015524534
0.00015304053
1.0988198e-05
1.0114289e-05
1.0104538e-05
1.0036305e-05
1.0044957e-05
1.0016824e-05
1.0022757e-05
1.0013266e-05
1.0013225e-05
1.0008813e-05
1.0007473e-05
1.0005768e-05
1.000509e-05
1.0004283e-05
1.0003554e-05
1.0002948e-05
1.0002626e-05
1.0002463e-05
1.000233e-05
1.00023e-05
1.0002479e-05
1.0002651e-05
1.0002594e-05
1.0002223e-05
1.0002125e-05
1.0002457e-05
1.0002643e-05
1.0002658e-05
1.000316e-05
1.000359e-05
1.0002723e-05
1.0001963e-05
1.0001726e-05
1.000076e-05
1.0000352e-05
1.0000159e-05
1.0000045e-05
1.0000019e-05
1.0000007e-05
1.0000002e-05
1.0000001e-05
1e-05
1e-05
0.0011489974
0.0027697832
0.0036101829
0.0037995692
0.0032050122
0.0013646738
0.00011570523
1.0680229e-05
1.0111826e-05
1.0103033e-05
1.0035739e-05
1.0044331e-05
1.0016593e-05
1.0022448e-05
1.0013115e-05
1.0013055e-05
1.0008754e-05
1.0007422e-05
1.0005761e-05
1.0005102e-05
1.0004312e-05
1.0003575e-05
1.000295e-05
1.0002609e-05
1.0002441e-05
1.0002316e-05
1.0002292e-05
1.0002474e-05
1.0002644e-05
1.0002582e-05
1.000221e-05
1.0002108e-05
1.0002423e-05
1.0002621e-05
1.0002634e-05
1.0003042e-05
1.000341e-05
1.0002664e-05
1.000198e-05
1.000171e-05
1.000078e-05
1.0000345e-05
1.0000132e-05
1.0000045e-05
1.0000019e-05
1.0000007e-05
1.0000002e-05
1.0000001e-05
1e-05
1e-05
0.0011462278
0.0027444188
0.003552881
0.0037026285
0.0030665301
0.0011878805
8.6609763e-05
1.0498011e-05
1.0109429e-05
1.0101405e-05
1.003513e-05
1.0043718e-05
1.0016368e-05
1.0022122e-05
1.0012967e-05
1.0012881e-05
1.0008695e-05
1.0007368e-05
1.0005753e-05
1.0005114e-05
1.000434e-05
1.0003596e-05
1.0002951e-05
1.0002591e-05
1.0002419e-05
1.0002301e-05
1.0002284e-05
1.0002468e-05
1.0002636e-05
1.0002569e-05
1.0002197e-05
1.0002092e-05
1.000239e-05
1.0002599e-05
1.0002612e-05
1.0002938e-05
1.0003249e-05
1.0002632e-05
1.0001847e-05
1.0001675e-05
1.0000793e-05
1.0000358e-05
1.0000088e-05
1.0000046e-05
1.0000019e-05
1.0000007e-05
1.0000002e-05
1.0000001e-05
1e-05
1e-05
0.0011435897
0.0027197693
0.0034963555
0.0036075652
0.0029215479
0.0010219412
6.4335551e-05
1.03909e-05
1.0107042e-05
1.0099669e-05
1.0034513e-05
1.0043059e-05
1.0016163e-05
1.0021784e-05
1.0012824e-05
1.0012701e-05
1.0008636e-05
1.0007313e-05
1.0005745e-05
1.0005124e-05
1.0004367e-05
1.0003616e-05
1.0002952e-05
1.0002573e-05
1.0002396e-05
1.0002288e-05
1.0002277e-05
1.0002462e-05
1.0002628e-05
1.0002555e-05
1.0002183e-05
1.0002076e-05
1.000236e-05
1.0002576e-05
1.0002592e-05
1.000285e-05
1.0003128e-05
1.00025e-05
1.0001764e-05
1.0001633e-05
1.0000799e-05
1.000037e-05
1.0000088e-05
1.0000045e-05
1.0000019e-05
1.0000007e-05
1.0000002e-05
1.0000001e-05
1e-05
1e-05
0.0011409548
0.0026947975
0.0034404413
0.003507411
0.0027691989
0.00086910051
4.7727298e-05
1.0327944e-05
1.0104649e-05
1.0097835e-05
1.0033885e-05
1.0042363e-05
1.0015976e-05
1.0021441e-05
1.0012685e-05
1.0012518e-05
1.0008576e-05
1.0007256e-05
1.0005736e-05
1.0005134e-05
1.0004393e-05
1.0003636e-05
1.0002952e-05
1.0002553e-05
1.0002372e-05
1.0002275e-05
1.000227e-05
1.0002457e-05
1.000262e-05
1.0002539e-05
1.0002168e-05
1.0002061e-05
1.0002331e-05
1.0002554e-05
1.0002572e-05
1.0002775e-05
1.0003059e-05
1.0002259e-05
1.0001787e-05
1.0001453e-05
1.0000815e-05
1.0000381e-05
1.000009e-05
1.0000045e-05
1.0000019e-05
1.0000007e-05
1.0000002e-05
1.0000001e-05
1e-05
1e-05
0.0011385397
0.0026695741
0.0033824204
0.003406393
0.0026083856
0.00073030319
3.5614442e-05
1.02902e-05
1.0102242e-05
1.0095909e-05
1.0033248e-05
1.0041631e-05
1.0015806e-05
1.0021091e-05
1.001255e-05
1.0012328e-05
1.0008515e-05
1.0007198e-05
1.0005728e-05
1.0005144e-05
1.0004419e-05
1.0003655e-05
1.0002952e-05
1.0002533e-05
1.0002347e-05
1.0002262e-05
1.0002263e-05
1.0002451e-05
1.0002612e-05
1.0002522e-05
1.0002152e-05
1.0002045e-05
1.0002305e-05
1.0002534e-05
1.0002553e-05
1.0002706e-05
1.0003005e-05
1.0002118e-05
1.0001772e-05
1.0001379e-05
1.0000768e-05
1.0000392e-05
1.0000091e-05
1.0000045e-05
1.0000018e-05
1.0000007e-05
1.0000002e-05
1.0000001e-05
1e-05
1e-05
0.0011363207
0.0026443184
0.0033233403
0.0033038421
0.0024388324
0.00060852083
2.6995971e-05
1.0266663e-05
1.0099815e-05
1.0093895e-05
1.0032603e-05
1.0040866e-05
1.0015654e-05
1.0020724e-05
1.001242e-05
1.0012133e-05
1.0008454e-05
1.000714e-05
1.0005719e-05
1.0005153e-05
1.0004443e-05
1.0003673e-05
1.0002952e-05
1.0002513e-05
1.0002322e-05
1.0002248e-05
1.0002256e-05
1.0002446e-05
1.0002605e-05
1.0002503e-05
1.0002134e-05
1.0002028e-05
1.000228e-05
1.0002514e-05
1.0002533e-05
1.0002636e-05
1.0002925e-05
1.0002104e-05
1.0001774e-05
1.000135e-05
1.0000723e-05
1.0000391e-05
1.0000091e-05
1.0000044e-05
1.0000018e-05
1.0000006e-05
1.0000002e-05
1.0000001e-05
1e-05
1e-05
0.0011341303
0.0026189642
0.0032639837
0.0032010039
0.0022613319
0.00049885078
2.0971753e-05
1.0251093e-05
1.0097369e-05
1.0091812e-05
1.0031952e-05
1.0040073e-05
1.0015517e-05
1.0020348e-05
1.0012294e-05
1.0011937e-05
1.0008393e-05
1.0007081e-05
1.000571e-05
1.0005162e-05
1.0004467e-05
1.0003691e-05
1.0002952e-05
1.0002492e-05
1.0002296e-05
1.0002234e-05
1.000225e-05
1.000244e-05
1.0002597e-05
1.0002484e-05
1.0002116e-05
1.0002011e-05
1.0002256e-05
1.0002496e-05
1.0002512e-05
1.0002559e-05
1.0002794e-05
1.0002106e-05
1.0001764e-05
1.0001335e-05
1.0000744e-05
1.0000363e-05
1.0000092e-05
1.0000043e-05
1.0000017e-05
1.0000006e-05
1.0000002e-05
1.0000001e-05
1e-05
1e-05
0.0011319086
0.0025927623
0.0032032112
0.0030966938
0.0020770297
0.00040169199
1.6897994e-05
1.0239966e-05
1.0094903e-05
1.008966e-05
1.0031297e-05
1.0039253e-05
1.0015397e-05
1.0019975e-05
1.0012171e-05
1.0011741e-05
1.0008331e-05
1.0007022e-05
1.0005701e-05
1.000517e-05
1.0004491e-05
1.0003709e-05
1.0002951e-05
1.0002471e-05
1.0002269e-05
1.0002217e-05
1.0002244e-05
1.0002434e-05
1.0002589e-05
1.0002463e-05
1.0002096e-05
1.0001992e-05
1.0002231e-05
1.0002481e-05
1.0002496e-05
1.0002485e-05
1.0002659e-05
1.0002105e-05
1.0001756e-05
1.0001321e-05
1.0000756e-05
1.0000281e-05
1.0000092e-05
1.0000042e-05
1.0000017e-05
1.0000006e-05
1.0000002e-05
1.0000001e-05
1e-05
1e-05
0.0011295972
0.0025656117
0.0031400526
0.0029836402
0.0018879213
0.00031710303
1.4236691e-05
1.023123e-05
1.0092419e-05
1.0087447e-05
1.0030639e-05
1.0038409e-05
1.0015291e-05
1.0019598e-05
1.0012052e-05
1.0011545e-05
1.0008268e-05
1.0006963e-05
1.0005693e-05
1.0005178e-05
1.0004513e-05
1.0003726e-05
1.0002951e-05
1.000245e-05
1.0002243e-05
1.00022e-05
1.0002237e-05
1.0002428e-05
1.000258e-05
1.0002442e-05
1.0002075e-05
1.0001972e-05
1.0002207e-05
1.0002466e-05
1.0002485e-05
1.000242e-05
1.0002512e-05
1.00021e-05
1.0001762e-05
1.0001316e-05
1.0000777e-05
1.0000181e-05
1.0000091e-05
1.0000041e-05
1.0000016e-05
1.0000006e-05
1.0000002e-05
1.0000001e-05
1e-05
1e-05
0.0011271608
0.00253732
0.0030751119
0.0028709391
0.0016974078
0.0002453768
1.2566063e-05
1.0223759e-05
1.0089921e-05
1.0085188e-05
1.0029981e-05
1.0037546e-05
1.0015199e-05
1.001921e-05
1.0011936e-05
1.001135e-05
1.0008205e-05
1.0006904e-05
1.0005684e-05
1.0005186e-05
1.0004535e-05
1.0003743e-05
1.0002951e-05
1.000243e-05
1.0002218e-05
1.0002181e-05
1.000223e-05
1.0002422e-05
1.000257e-05
1.000242e-05
1.0002054e-05
1.0001951e-05
1.000218e-05
1.0002451e-05
1.0002479e-05
1.0002375e-05
1.0002382e-05
1.0002093e-05
1.0001781e-05
1.0001323e-05
1.0000801e-05
1.0000144e-05
1.0000089e-05
1.000004e-05
1.0000016e-05
1.0000005e-05
1.0000002e-05
1.0000001e-05
1e-05
1e-05
0.0011245687
0.0025078923
0.0030049761
0.0027570903
0.0015072659
0.00018582013
1.1551227e-05
1.0216796e-05
1.0087411e-05
1.0082883e-05
1.0029323e-05
1.0036664e-05
1.001512e-05
1.0018822e-05
1.0011823e-05
1.0011158e-05
1.0008141e-05
1.0006845e-05
1.0005676e-05
1.0005194e-05
1.0004556e-05
1.0003759e-05
1.0002951e-05
1.000241e-05
1.0002194e-05
1.0002162e-05
1.0002222e-05
1.0002415e-05
1.0002558e-05
1.0002399e-05
1.0002032e-05
1.0001929e-05
1.0002153e-05
1.0002437e-05
1.0002475e-05
1.0002348e-05
1.0002282e-05
1.0002082e-05
1.0001792e-05
1.0001282e-05
1.0000816e-05
1.0000146e-05
1.0000087e-05
1.0000039e-05
1.0000015e-05
1.0000005e-05
1.0000002e-05
1.0000001e-05
1e-05
1e-05
0.0011220122
0.0024788907
0.0029359555
0.0026406651
0.0013204997
0.00013775382
1.0958419e-05
1.0209893e-05
1.0084893e-05
1.0080544e-05
1.0028668e-05
1.0035768e-05
1.0015052e-05
1.0018435e-05
1.0011712e-05
1.0010968e-05
1.0008076e-05
1.0006787e-05
1.0005667e-05
1.0005201e-05
1.0004577e-05
1.0003775e-05
1.0002951e-05
1.0002391e-05
1.000217e-05
1.0002142e-05
1.0002214e-05
1.0002407e-05
1.0002545e-05
1.0002379e-05
1.0002009e-05
1.0001906e-05
1.0002125e-05
1.0002424e-05
1.0002472e-05
1.0002333e-05
1.0002223e-05
1.0002069e-05
1.0001781e-05
1.0001257e-05
1.0000814e-05
1.0000147e-05
1.0000084e-05
1.0000038e-05
1.0000015e-05
1.0000005e-05
1.0000002e-05
1.0000001e-05
1e-05
1e-05
0.0011193667
0.002449399
0.0028668886
0.0025191988
0.0011398983
9.9995976e-05
1.0624405e-05
1.020289e-05
1.008237e-05
1.007817e-05
1.0028017e-05
1.0034861e-05
1.0014994e-05
1.0018047e-05
1.0011603e-05
1.0010784e-05
1.0008011e-05
1.000673e-05
1.0005659e-05
1.0005209e-05
1.0004597e-05
1.0003791e-05
1.0002953e-05
1.0002374e-05
1.0002146e-05
1.0002122e-05
1.0002204e-05
1.0002398e-05
1.0002532e-05
1.0002359e-05
1.0001986e-05
1.0001882e-05
1.0002096e-05
1.000241e-05
1.0002471e-05
1.0002318e-05
1.000219e-05
1.0002053e-05
1.0001762e-05
1.0001273e-05
1.0000791e-05
1.0000148e-05
1.0000082e-05
1.0000037e-05
1.0000014e-05
1.0000005e-05
1.0000001e-05
1.0000001e-05
1e-05
1e-05
0.001116581
0.0024188757
0.0027950646
0.0023910834
0.00096857019
7.1341991e-05
1.0442083e-05
1.0196568e-05
1.0079846e-05
1.007577e-05
1.0027372e-05
1.0033945e-05
1.0014945e-05
1.001766e-05
1.0011496e-05
1.0010608e-05
1.0007945e-05
1.0006674e-05
1.0005651e-05
1.0005216e-05
1.0004616e-05
1.0003806e-05
1.0002954e-05
1.0002358e-05
1.0002124e-05
1.0002101e-05
1.0002194e-05
1.0002389e-05
1.0002518e-05
1.0002339e-05
1.0001963e-05
1.0001858e-05
1.0002066e-05
1.0002393e-05
1.000247e-05
1.0002304e-05
1.0002165e-05
1.0002042e-05
1.0001763e-05
1.0001276e-05
1.0000651e-05
1.0000149e-05
1.0000079e-05
1.0000035e-05
1.0000013e-05
1.0000004e-05
1.0000001e-05
1.0000001e-05
1e-05
1e-05
0.0011136793
0.0023877896
0.0027211198
0.0022567969
0.00080928995
5.0476864e-05
1.0343584e-05
1.019055e-05
1.0077326e-05
1.0073357e-05
1.0026735e-05
1.0033026e-05
1.0014902e-05
1.0017276e-05
1.0011391e-05
1.0010439e-05
1.000788e-05
1.0006619e-05
1.0005643e-05
1.0005224e-05
1.0004635e-05
1.0003821e-05
1.0002957e-05
1.0002347e-05
1.0002103e-05
1.0002081e-05
1.0002182e-05
1.0002379e-05
1.0002504e-05
1.000232e-05
1.000194e-05
1.0001834e-05
1.0002035e-05
1.0002374e-05
1.0002467e-05
1.0002293e-05
1.0002143e-05
1.0002038e-05
1.0001781e-05
1.000129e-05
1.0000463e-05
1.0000148e-05
1.0000076e-05
1.0000034e-05
1.0000013e-05
1.0000004e-05
1.0000001e-05
1.0000001e-05
1e-05
1e-05
0.0011107884
0.0023567011
0.0026452385
0.0021184008
0.00066459921
3.5849758e-05
1.0289975e-05
1.0184421e-05
1.0074813e-05
1.0070935e-05
1.0026106e-05
1.0032106e-05
1.0014863e-05
1.0016896e-05
1.0011287e-05
1.0010273e-05
1.0007814e-05
1.0006565e-05
1.0005636e-05
1.0005231e-05
1.0004653e-05
1.0003836e-05
1.0002961e-05
1.0002337e-05
1.0002084e-05
1.000206e-05
1.0002171e-05
1.0002369e-05
1.0002489e-05
1.00023e-05
1.0001917e-05
1.0001809e-05
1.0002004e-05
1.000235e-05
1.000246e-05
1.0002263e-05
1.0002126e-05
1.0002038e-05
1.0001746e-05
1.0001304e-05
1.0000302e-05
1.0000145e-05
1.0000073e-05
1.0000033e-05
1.0000012e-05
1.0000004e-05
1.0000001e-05
1.0000001e-05
1e-05
1e-05
0.0011079991
0.0023261319
0.0025688972
0.0019714343
0.00053682989
2.6132752e-05
1.0259534e-05
1.0178304e-05
1.0072312e-05
1.0068517e-05
1.0025488e-05
1.003119e-05
1.0014826e-05
1.0016522e-05
1.0011186e-05
1.0010111e-05
1.0007748e-05
1.0006513e-05
1.0005628e-05
1.0005238e-05
1.0004671e-05
1.0003851e-05
1.0002966e-05
1.0002331e-05
1.0002066e-05
1.000204e-05
1.0002159e-05
1.0002356e-05
1.0002472e-05
1.000228e-05
1.0001895e-05
1.0001784e-05
1.0001972e-05
1.0002324e-05
1.0002454e-05
1.0002232e-05
1.0002104e-05
1.0002016e-05
1.0001684e-05
1.0001325e-05
1.0000207e-05
1.0000141e-05
1.000007e-05
1.0000031e-05
1.0000012e-05
1.0000004e-05
1.0000001e-05
1.0000001e-05
1e-05
1e-05
0.0011053466
0.0022960947
0.0025002613
0.0018161103
0.00043023209
2.0040945e-05
1.0240728e-05
1.0172145e-05
1.0069824e-05
1.0066097e-05
1.0024883e-05
1.0030278e-05
1.0014791e-05
1.0016153e-05
1.0011086e-05
1.0009952e-05
1.0007682e-05
1.0006462e-05
1.0005621e-05
1.0005246e-05
1.0004688e-05
1.0003866e-05
1.0002973e-05
1.0002328e-05
1.0002049e-05
1.0002019e-05
1.0002146e-05
1.0002342e-05
1.0002454e-05
1.000226e-05
1.0001874e-05
1.0001758e-05
1.0001939e-05
1.0002296e-05
1.0002449e-05
1.0002206e-05
1.0002078e-05
1.0001959e-05
1.0001655e-05
1.0001353e-05
1.0000204e-05
1.0000136e-05
1.0000068e-05
1.000003e-05
1.0000011e-05
1.0000004e-05
1.0000001e-05
1.0000001e-05
1e-05
1e-05
0.0011026381
0.0022644741
0.0024252066
0.001651947
0.0003372954
1.6117638e-05
1.0227651e-05
1.0165997e-05
1.0067355e-05
1.0063693e-05
1.0024291e-05
1.0029377e-05
1.0014755e-05
1.0015792e-05
1.0010987e-05
1.0009799e-05
1.0007617e-05
1.0006412e-05
1.0005614e-05
1.0005253e-05
1.0004704e-05
1.000388e-05
1.000298e-05
1.0002328e-05
1.0002033e-05
1.0001999e-05
1.0002132e-05
1.0002327e-05
1.0002434e-05
1.0002241e-05
1.0001854e-05
1.0001734e-05
1.0001904e-05
1.0002266e-05
1.0002443e-05
1.0002187e-05
1.0002051e-05
1.0001937e-05
1.0001621e-05
1.0001338e-05
1.0000205e-05
1.000013e-05
1.0000065e-05
1.0000028e-05
1.0000011e-05
1.0000003e-05
1.0000001e-05
1.0000001e-05
1e-05
1e-05
0.0011000945
0.002232323
0.0023504623
0.0014821726
0.00025908171
1.3688994e-05
1.0217625e-05
1.0159856e-05
1.0064907e-05
1.0061309e-05
1.0023714e-05
1.0028489e-05
1.0014718e-05
1.001544e-05
1.0010889e-05
1.0009651e-05
1.0007552e-05
1.0006365e-05
1.0005608e-05
1.000526e-05
1.000472e-05
1.0003895e-05
1.0002989e-05
1.0002331e-05
1.0002018e-05
1.0001979e-05
1.0002116e-05
1.0002309e-05
1.0002415e-05
1.0002222e-05
1.0001836e-05
1.0001711e-05
1.000187e-05
1.0002233e-05
1.0002428e-05
1.0002158e-05
1.0002025e-05
1.0001911e-05
1.0001588e-05
1.0001183e-05
1.0000205e-05
1.0000125e-05
1.0000062e-05
1.0000027e-05
1.000001e-05
1.0000003e-05
1.0000001e-05
1.0000001e-05
1e-05
1e-05
0.0010977063
0.0021989778
0.0022732301
0.0013101012
0.00019478046
1.2238988e-05
1.0209191e-05
1.0153724e-05
1.0062482e-05
1.0058947e-05
1.0023155e-05
1.0027617e-05
1.001468e-05
1.0015097e-05
1.0010792e-05
1.0009507e-05
1.0007487e-05
1.0006319e-05
1.0005601e-05
1.0005267e-05
1.0004735e-05
1.000391e-05
1.0002999e-05
1.0002335e-05
1.0002004e-05
1.0001959e-05
1.0002098e-05
1.0002291e-05
1.0002396e-05
1.0002205e-05
1.000182e-05
1.000169e-05
1.0001835e-05
1.0002196e-05
1.0002404e-05
1.0002139e-05
1.0002003e-05
1.0001887e-05
1.0001574e-05
1.0000932e-05
1.0000207e-05
1.0000119e-05
1.0000059e-05
1.0000025e-05
1.000001e-05
1.0000003e-05
1.0000001e-05
1.0000001e-05
1e-05
1e-05
0.0010953561
0.0021638241
0.0021933521
0.0011459611
0.00014394307
1.1405113e-05
1.0201576e-05
1.0147622e-05
1.0060083e-05
1.005662e-05
1.0022615e-05
1.0026765e-05
1.0014638e-05
1.0014764e-05
1.0010697e-05
1.0009369e-05
1.0007424e-05
1.0006275e-05
1.0005595e-05
1.0005273e-05
1.000475e-05
1.0003924e-05
1.0003011e-05
1.0002341e-05
1.000199e-05
1.0001938e-05
1.0002079e-05
1.0002272e-05
1.0002377e-05
1.0002187e-05
1.0001804e-05
1.0001672e-05
1.0001801e-05
1.0002156e-05
1.0002393e-05
1.0002119e-05
1.0001983e-05
1.000185e-05
1.0001572e-05
1.0000628e-05
1.0000205e-05
1.0000114e-05
1.0000056e-05
1.0000024e-05
1.0000009e-05
1.0000003e-05
1.0000001e-05
1.0000001e-05
1e-05
1e-05
0.0010925618
0.0021233962
0.0021087803
0.00099110796
0.00010451973
1.0937112e-05
1.0194336e-05
1.0141547e-05
1.0057713e-05
1.005433e-05
1.0022096e-05
1.0025934e-05
1.0014592e-05
1.0014439e-05
1.0010604e-05
1.0009237e-05
1.0007361e-05
1.0006232e-05
1.0005588e-05
1.0005279e-05
1.0004764e-05
1.0003939e-05
1.0003024e-05
1.0002349e-05
1.0001978e-05
1.0001916e-05
1.0002058e-05
1.0002254e-05
1.0002359e-05
1.0002171e-05
1.0001789e-05
1.0001655e-05
1.0001768e-05
1.0002114e-05
1.0002383e-05
1.0002102e-05
1.0001952e-05
1.0001785e-05
1.0001591e-05
1.0000444e-05
1.0000201e-05
1.0000109e-05
1.0000053e-05
1.0000023e-05
1.0000009e-05
1.0000003e-05
1.0000001e-05
1.0000001e-05
1e-05
1e-05
0.0010892886
0.0020786249
0.0020181575
0.00084640204
7.4754859e-05
1.0679683e-05
1.0187269e-05
1.0135509e-05
1.0055373e-05
1.0052084e-05
1.0021599e-05
1.0025127e-05
1.001454e-05
1.0014102e-05
1.0010514e-05
1.0009111e-05
1.00073e-05
1.0006191e-05
1.0005582e-05
1.0005284e-05
1.0004777e-05
1.0003953e-05
1.0003038e-05
1.0002359e-05
1.0001968e-05
1.0001894e-05
1.0002037e-05
1.0002236e-05
1.000234e-05
1.0002155e-05
1.0001774e-05
1.0001639e-05
1.000174e-05
1.0002065e-05
1.000236e-05
1.000209e-05
1.0001908e-05
1.0001713e-05
1.0001602e-05
1.0000316e-05
1.0000195e-05
1.0000104e-05
1.000005e-05
1.0000021e-05
1.0000008e-05
1.0000003e-05
1.0000001e-05
1e-05
1e-05
1e-05
0.0010853238
0.0020284986
0.0019175141
0.00071283621
5.296705e-05
1.0539076e-05
1.0180319e-05
1.0129517e-05
1.0053069e-05
1.004989e-05
1.0021126e-05
1.0024343e-05
1.0014483e-05
1.0013755e-05
1.0010423e-05
1.0008991e-05
1.000724e-05
1.0006153e-05
1.0005575e-05
1.0005288e-05
1.0004789e-05
1.0003969e-05
1.0003055e-05
1.0002371e-05
1.0001962e-05
1.0001873e-05
1.0002017e-05
1.0002218e-05
1.0002321e-05
1.000214e-05
1.000176e-05
1.0001628e-05
1.0001714e-05
1.0002014e-05
1.0002332e-05
1.0002076e-05
1.0001865e-05
1.0001677e-05
1.0001582e-05
1.0000266e-05
1.0000188e-05
1.0000099e-05
1.0000047e-05
1.000002e-05
1.0000008e-05
1.0000002e-05
1.0000001e-05
1e-05
1e-05
1e-05
0.0010806739
0.0019730742
0.0017999852
0.00059174163
3.7632326e-05
1.0461089e-05
1.0173485e-05
1.0123588e-05
1.0050806e-05
1.0047752e-05
1.002068e-05
1.0023586e-05
1.0014419e-05
1.0013454e-05
1.0010334e-05
1.0008878e-05
1.0007182e-05
1.0006115e-05
1.0005567e-05
1.000529e-05
1.0004801e-05
1.0003984e-05
1.0003074e-05
1.0002387e-05
1.0001961e-05
1.0001855e-05
1.0001996e-05
1.0002198e-05
1.0002301e-05
1.0002126e-05
1.0001748e-05
1.0001618e-05
1.0001691e-05
1.0001966e-05
1.000233e-05
1.0002067e-05
1.0001831e-05
1.0001645e-05
1.0001501e-05
1.000026e-05
1.0000179e-05
1.0000094e-05
1.0000044e-05
1.0000019e-05
1.0000007e-05
1.0000002e-05
1.0000001e-05
1e-05
1e-05
1e-05
0.0010755808
0.0019143653
0.0016695341
0.00048308907
2.7309407e-05
1.0415567e-05
1.0166737e-05
1.0117729e-05
1.0048589e-05
1.0045675e-05
1.0020262e-05
1.0022858e-05
1.0014349e-05
1.0013198e-05
1.0010246e-05
1.000877e-05
1.0007126e-05
1.0006079e-05
1.0005559e-05
1.0005292e-05
1.0004812e-05
1.0004001e-05
1.0003095e-05
1.0002406e-05
1.0001964e-05
1.0001841e-05
1.0001975e-05
1.0002178e-05
1.0002281e-05
1.0002111e-05
1.0001737e-05
1.0001609e-05
1.000167e-05
1.0001918e-05
1.0002291e-05
1.0002066e-05
1.0001807e-05
1.0001619e-05
1.0001214e-05
1.0000253e-05
1.000017e-05
1.0000089e-05
1.0000042e-05
1.0000018e-05
1.0000007e-05
1.0000002e-05
1.0000001e-05
1e-05
1e-05
1e-05
0.001070082
0.0018530623
0.0015285789
0.00038871629
2.0756616e-05
1.0386359e-05
1.0160026e-05
1.0111945e-05
1.0046423e-05
1.0043662e-05
1.0019874e-05
1.0022161e-05
1.0014274e-05
1.001295e-05
1.0010159e-05
1.0008669e-05
1.0007071e-05
1.0006045e-05
1.0005549e-05
1.0005292e-05
1.0004822e-05
1.0004019e-05
1.0003117e-05
1.000243e-05
1.0001971e-05
1.0001835e-05
1.0001952e-05
1.0002157e-05
1.000226e-05
1.0002095e-05
1.0001727e-05
1.0001602e-05
1.0001651e-05
1.0001865e-05
1.0002152e-05
1.0002062e-05
1.0001766e-05
1.0001619e-05
1.0000891e-05
1.0000251e-05
1.0000161e-05
1.0000084e-05
1.0000039e-05
1.0000017e-05
1.0000006e-05
1.0000002e-05
1.0000001e-05
1e-05
1e-05
1e-05
0.0010641534
0.0017879268
0.0013895265
0.00030876336
1.6674985e-05
1.0364993e-05
1.0153314e-05
1.0106257e-05
1.0044314e-05
1.0041718e-05
1.0019517e-05
1.0021496e-05
1.0014194e-05
1.0012718e-05
1.0010074e-05
1.0008575e-05
1.0007019e-05
1.0006011e-05
1.0005538e-05
1.0005289e-05
1.0004831e-05
1.0004038e-05
1.0003139e-05
1.0002458e-05
1.0001981e-05
1.0001832e-05
1.0001928e-05
1.0002135e-05
1.0002239e-05
1.0002078e-05
1.0001716e-05
1.0001595e-05
1.0001632e-05
1.0001822e-05
1.0002077e-05
1.0002057e-05
1.0001697e-05
1.0001632e-05
1.0000654e-05
1.0000252e-05
1.0000153e-05
1.0000079e-05
1.0000037e-05
1.0000016e-05
1.0000006e-05
1.0000002e-05
1.0000001e-05
1e-05
1e-05
1e-05
0.001058137
0.001715003
0.0012505853
0.00024024588
1.409151e-05
1.0347361e-05
1.0146583e-05
1.0100691e-05
1.0042267e-05
1.0039851e-05
1.0019193e-05
1.0020863e-05
1.0014108e-05
1.0012501e-05
1.0009992e-05
1.0008486e-05
1.0006969e-05
1.0005978e-05
1.0005524e-05
1.0005285e-05
1.0004841e-05
1.0004057e-05
1.0003162e-05
1.000249e-05
1.000199e-05
1.0001828e-05
1.0001904e-05
1.0002112e-05
1.0002217e-05
1.0002061e-05
1.0001706e-05
1.0001586e-05
1.0001614e-05
1.0001785e-05
1.000204e-05
1.0002059e-05
1.0001621e-05
1.0001631e-05
1.0000497e-05
1.000025e-05
1.0000145e-05
1.0000075e-05
1.0000035e-05
1.0000015e-05
1.0000005e-05
1.0000002e-05
1.0000001e-05
1e-05
1e-05
1e-05
0.0010537741
0.0016517948
0.0011116452
0.00018308261
1.2521841e-05
1.0331362e-05
1.0139833e-05
1.0095257e-05
1.0040288e-05
1.0038063e-05
1.0018904e-05
1.0020264e-05
1.0014018e-05
1.0012297e-05
1.0009911e-05
1.0008404e-05
1.0006921e-05
1.0005945e-05
1.0005509e-05
1.0005279e-05
1.0004849e-05
1.0004077e-05
1.0003184e-05
1.0002523e-05
1.0001999e-05
1.0001825e-05
1.0001882e-05
1.0002087e-05
1.0002194e-05
1.0002044e-05
1.0001695e-05
1.0001576e-05
1.0001596e-05
1.0001733e-05
1.000201e-05
1.0002051e-05
1.0001575e-05
1.0001609e-05
1.0000379e-05
1.0000245e-05
1.0000137e-05
1.000007e-05
1.0000033e-05
1.0000014e-05
1.0000005e-05
1.0000002e-05
1.0000001e-05
1e-05
1e-05
1e-05
0.0010497406
0.0015838867
0.00097361554
0.00013649628
1.1593237e-05
1.0315723e-05
1.0133069e-05
1.008996e-05
1.003838e-05
1.0036355e-05
1.0018652e-05
1.0019697e-05
1.0013924e-05
1.0012108e-05
1.0009834e-05
1.0008329e-05
1.0006875e-05
1.0005912e-05
1.0005491e-05
1.0005271e-05
1.0004856e-05
1.0004097e-05
1.0003208e-05
1.0002555e-05
1.000201e-05
1.0001823e-05
1.0001862e-05
1.000206e-05
1.0002169e-05
1.0002026e-05
1.0001686e-05
1.0001564e-05
1.0001577e-05
1.0001676e-05
1.0001953e-05
1.0002041e-05
1.0001562e-05
1.0001539e-05
1.0000319e-05
1.0000237e-05
1.000013e-05
1.0000066e-05
1.000003e-05
1.0000013e-05
1.0000005e-05
1.0000002e-05
1e-05
1e-05
1e-05
1e-05
0.0010466222
0.0015128823
0.00084018344
9.9666665e-05
1.1062473e-05
1.0299876e-05
1.0126304e-05
1.0084805e-05
1.0036549e-05
1.0034728e-05
1.0018438e-05
1.0019163e-05
1.0013828e-05
1.0011933e-05
1.000976e-05
1.0008259e-05
1.0006831e-05
1.0005879e-05
1.000547e-05
1.0005259e-05
1.0004861e-05
1.0004117e-05
1.0003235e-05
1.0002587e-05
1.0002022e-05
1.0001821e-05
1.0001844e-05
1.0002033e-05
1.0002141e-05
1.0002005e-05
1.0001678e-05
1.0001553e-05
1.0001556e-05
1.0001621e-05
1.0001874e-05
1.0002026e-05
1.0001555e-05
1.0001259e-05
1.0000301e-05
1.0000227e-05
1.0000123e-05
1.0000062e-05
1.0000028e-05
1.0000012e-05
1.0000004e-05
1.0000002e-05
1e-05
1e-05
1e-05
1e-05
0.0010447961
0.0014379012
0.00071384728
7.1464843e-05
1.0767184e-05
1.0284204e-05
1.0119566e-05
1.0079807e-05
1.0034795e-05
1.0033184e-05
1.0018262e-05
1.0018661e-05
1.0013732e-05
1.0011771e-05
1.0009689e-05
1.0008194e-05
1.0006788e-05
1.0005845e-05
1.0005447e-05
1.0005245e-05
1.0004863e-05
1.0004136e-05
1.0003269e-05
1.0002619e-05
1.0002037e-05
1.0001819e-05
1.0001828e-05
1.0002006e-05
1.0002112e-05
1.0001981e-05
1.0001671e-05
1.0001544e-05
1.0001535e-05
1.0001564e-05
1.00018e-05
1.0001966e-05
1.0001584e-05
1.0000985e-05
1.0000285e-05
1.0000215e-05
1.0000116e-05
1.0000058e-05
1.0000027e-05
1.0000011e-05
1.0000004e-05
1.0000001e-05
1e-05
1e-05
1e-05
1e-05
0.0010445925
0.0013619946
0.00059667845
5.0704804e-05
1.0604091e-05
1.0270244e-05
1.0112896e-05
1.0074983e-05
1.0033131e-05
1.0031715e-05
1.0018128e-05
1.0018193e-05
1.0013632e-05
1.0011622e-05
1.0009622e-05
1.0008135e-05
1.0006746e-05
1.0005809e-05
1.0005421e-05
1.0005226e-05
1.0004862e-05
1.0004156e-05
1.0003313e-05
1.0002653e-05
1.0002054e-05
1.0001817e-05
1.0001814e-05
1.0001981e-05
1.0002082e-05
1.0001953e-05
1.0001661e-05
1.0001536e-05
1.0001514e-05
1.0001504e-05
1.0001728e-05
1.0001891e-05
1.0001644e-05
1.0000782e-05
1.0000273e-05
1.0000203e-05
1.0000109e-05
1.0000054e-05
1.0000025e-05
1.000001e-05
1.0000004e-05
1.0000001e-05
1e-05
1e-05
1e-05
1.0000001e-05
0.0010452888
0.0012796208
0.000489774
3.6134138e-05
1.051022e-05
1.0255928e-05
1.0106314e-05
1.007035e-05
1.0031564e-05
1.0030338e-05
1.0018032e-05
1.001775e-05
1.0013529e-05
1.0011485e-05
1.0009558e-05
1.000808e-05
1.0006706e-05
1.0005773e-05
1.0005391e-05
1.0005203e-05
1.0004856e-05
1.0004179e-05
1.0003364e-05
1.000269e-05
1.0002074e-05
1.0001815e-05
1.0001802e-05
1.0001957e-05
1.0002053e-05
1.0001922e-05
1.0001647e-05
1.0001531e-05
1.0001496e-05
1.0001451e-05
1.0001648e-05
1.0001756e-05
1.0001721e-05
1.0000629e-05
1.0000265e-05
1.0000191e-05
1.0000103e-05
1.0000051e-05
1.0000023e-05
1.000001e-05
1.0000004e-05
1.0000001e-05
1e-05
1e-05
1e-05
1.0000001e-05
0.0010463305
0.0011867361
0.00039465461
2.6331324e-05
1.0451926e-05
1.0241577e-05
1.0099853e-05
1.0065912e-05
1.0030098e-05
1.0029049e-05
1.0017985e-05
1.0017282e-05
1.0013424e-05
1.001136e-05
1.0009498e-05
1.000803e-05
1.0006667e-05
1.0005736e-05
1.0005356e-05
1.0005173e-05
1.0004846e-05
1.0004206e-05
1.0003414e-05
1.0002728e-05
1.0002096e-05
1.0001816e-05
1.0001792e-05
1.0001936e-05