/*--------------------------------*- C++ -*----------------------------------*\
  =========                 |
  \\      /  F ield         | OpenFOAM: The Open Source CFD Toolbox
   \\    /   O peration     | Website:  https://openfoam.org
    \\  /    A nd           | Version:  8
     \\/     M anipulation  |
\*---------------------------------------------------------------------------*/
FoamFile
{
    version     2.0;
    format      ascii;
    class       volScalarField;
    location    "0.0199971";
    object      p;
}
// * * * * * * * * * * * * * * * * * * * * * * * * * * * * * * * * * * * * * //

dimensions      [1 -1 -2 0 0 0 0];

internalField   nonuniform List<scalar> 
20000
(
72063.757
72079.629
72097.316
72120.514
72151.288
72191.419
72245.103
72307.593
72385.921
72479.754
72589.744
72730.359
72892.613
73107.815
73354.178
73680.129
74058.614
74545.682
75115.214
75825.332
76665.694
77686.53
78883.509
80284.257
81872.675
83631.691
85501.998
87410.747
89265.752
90985.29
92521.945
93857.211
94948.576
95814.692
96685.784
97498.301
97911.897
97870.078
97518.565
98070.471
99480.863
100282.42
100496.6
100322.62
100150.94
100062.18
100023.23
100007.97
100002.45
100000.59
71674.392
71690.432
71708.024
71731.868
71763.902
71806.285
71863.554
71930.373
72013.931
72114.882
72234.799
72388.905
72565.155
72796.728
73057.298
73398.001
73787.8
74286.02
74865.851
75585.608
76434.084
77461.212
78664.608
80072.818
81673.144
83450.373
85348.289
87291.825
89182.805
90934.334
92497.448
93846.602
94932.984
95806.201
96737.34
97500.154
97823.275
97703.009
97458.896
98300.09
99626.045
100308.48
100498.65
100316.05
100150.96
100063.46
100024.1
100008.31
100002.55
100000.62
71465.218
71481.219
71498.832
71522.97
71556.005
71600.432
71661.338
71732.906
71823.061
71932.452
72061.399
72226.606
72410.974
72652.723
72922.294
73273.414
73670.672
74176.354
74761.599
75486.887
76340.053
77371.08
78578.213
79990.403
81596.413
83381.849
85291.911
87250.532
89157.211
90920.526
92493.108
93846.474
94929.92
95814.554
96791.15
97466.329
97701.832
97549.266
97432.351
98538.956
99750.235
100339.29
100507.15
100312.95
100150.95
100064.01
100024.49
100008.46
100002.59
100000.63
71357.282
71374.051
71393.258
71419.739
71456.132
71504.797
71570.936
71647.595
71742.469
71857.2
71990.355
72161.563
72349.509
72597.445
72871.821
73229.796
73632.828
74141.989
74729.64
75457.857
76313.634
77347.045
78556.387
79970.725
81579.292
83367.91
85282.176
87245.74
89159.578
90939.574
92524.541
93877.956
94949.587
95862.725
96833.721
97408.212
97569.82
97418.726
97424.705
98761.443
99858.358
100374.24
100520.61
100311.58
100150.83
100064.22
100024.66
100008.53
100002.62
100000.65
71325.929
71342.996
71362.255
71389.046
71426.126
71475.874
71543.728
71621.778
71718.448
71835.096
71969.458
72142.246
72332.843
72584.593
72861.135
73222.862
73628.889
74146.419
74744.399
75484.128
76350.809
77394.268
78612.558
80034.203
81648.632
83441.273
85358.078
87322.55
89237.169
91017.547
92600.123
93941.303
94999.411
95943.602
96859.811
97339.457
97446.865
97295.476
97468.703
98963.071
99963.01
100410.81
100536.75
100310.97
100150.66
100064.3
100024.73
100008.57
100002.63
100000.65
71318.956
71337.314
71358.223
71387.311
71427.294
71480.287
71551.874
71633.526
71734.664
71856.211
71994.818
72173.528
72370.316
72631.082
72915.454
73288.149
73705.347
74236.094
74846.804
75600.174
76480.478
77537.007
78767.301
80198.545
81819.395
83613.784
85527.147
87482.928
89385.569
91152.586
92719.225
94036.844
95078.869
96044.417
96877.087
97270.333
97342.83
97221.397
97600.1
99142.49
100067.38
100450.32
100552.09
100310.71
100150.31
100064.33
100024.76
100008.59
100002.64
100000.66
71398.474
71417.22
71438.149
71467.337
71507.809
71561.278
71633.965
71716.712
71819.394
71944.191
72086.549
72272.351
72473.949
72743.36
73036.018
73420.606
73849.643
74395.087
75021.248
75791.389
76689.005
77762.643
79009.087
80453.488
82082.83
83878.412
85784.195
87723.25
89602.145
91341.897
92878.877
94162.645
95185.326
96154.162
96893.266
97210.559
97260.183
97188.189
97790.781
99310.567
100175.32
100496.89
100564.44
100310.57
100149.64
100064.19
100024.77
100008.6
100002.65
100000.67
71508.326
71528.115
71550.366
71581.236
71624.256
71680.495
71756.875
71843.147
71949.872
72079.975
72227.147
72420.282
72628.66
72908.19
73210.512
73608.171
74050.708
74612.149
75255.266
76044.177
76961.892
78055.971
79322.265
80783.305
82423.604
84220.741
86116.191
88032.184
89877.934
91579.28
93075.06
94316.516
95315.579
96265.273
96914.54
97176.145
97204.545
97176.577
98006.431
99471.991
100283.45
100557.9
100570.39
100309.85
100148.54
100063.73
100024.67
100008.6
100002.65
100000.67
71664.551
71685.096
71707.976
71739.764
71784.481
71842.549
71921.682
72010.714
72120.996
72256.219
72408.299
72609.275
72824.705
73115
73427.546
73839.062
74295.811
74874.563
75536.758
76347.018
77288.018
78406.122
79696.084
81177.353
82831.255
84630.723
86513.847
88401.573
90206.17
91859.269
93303.629
94495.651
95466.501
96373.233
96941.499
97161.249
97177.291
97174.357
98232.705
99628.765
100385.79
100635.04
100572.88
100308.23
100146.95
100062.94
100024.39
100008.53
100002.65
100000.68
71840.153
71862.111
71886.601
71920.581
71968.555
72030.092
72113.665
72207.14
72322.229
72463.783
72621.615
72831.27
73054.346
73355.965
73679.377
74105.397
74577.576
75174.905
75857.863
76691.61
77658.624
78803.82
80120.731
81625.316
83295.088
85097.535
86966.663
88821.827
90578.795
92175.636
93560.158
94696.749
95634.4
96476.551
96972.867
97156.47
97165.917
97214.784
98467.036
99782.869
100483.18
100709.72
100573.62
100305.72
100144.84
100061.85
100023.95
100008.39
100002.63
100000.68
72052.214
72075.107
72100.485
72135.71
72186.059
72249.819
72336.537
72433.469
72552.619
72700.008
72863.179
73081.453
73312.21
73625.493
73960.227
74401.517
74890.087
75507.462
76213.317
77072.953
78068.762
79243.989
80590.86
82121.428
83808.819
85614.386
87467.547
89286.09
90989.585
92523.157
93840.606
94916.156
95811.668
96577.54
97007.985
97156.116
97162.937
97308.317
98708.741
99933.751
100574.39
100779.03
100573.53
100302.18
100142.23
100060.5
100023.39
100008.21
100002.59
100000.68
72281.524
72305.859
72332.78
72369.907
72423.429
72489.944
72580.508
72681.617
72805.391
72959.199
73127.978
73355.259
73594.012
73919.452
74266.2
74723.631
75230.035
75869
76599.626
77487.229
78514.229
79721.999
81101.316
82659.919
84365.963
86174.122
88008.956
89786.938
91431.838
92896.328
94140.826
95150.119
95993.411
96677.356
97048.395
97170.128
97176.353
97466.807
98956.373
100081.06
100656.68
100841.15
100570.21
100297.57
100139.14
100058.94
100022.74
100007.99
100002.55
100000.68
72536.397
72561.787
72589.666
72627.991
72684.038
72752.528
72846.455
72950.894
73078.6
73238.642
73413.011
73649.641
73896.859
74235.132
74594.81
75069.487
75595.166
76257.337
77014.791
77932.483
78993.004
80235.658
81649.604
83237.784
84962.808
86772.23
88585.767
90318.927
91900.351
93290.615
94457.149
95395.155
96176.781
96777.848
97095.891
97201.659
97215.626
97683.582
99204.737
100227.43
100729.36
100890.99
100564.62
100292.02
100135.64
100057.21
100022.03
100007.76
100002.49
100000.69
72800.895
72827.72
72857.058
72897.224
72956.682
73028.055
73126.433
73235.444
73367.916
73535.227
73715.888
73962.691
74219
74570.993
74944.643
75437.859
75984.341
76671.289
77457.325
78406.942
79503.039
80782.608
82232.934
83851.625
85595.157
87403.692
89192.337
90876.219
92389.603
93701.284
94785.816
95648.105
96360.75
96881.963
97153.075
97250.386
97281.061
97938.487
99446.034
100377.05
100795.66
100921.86
100557.12
100285.65
100131.81
100055.35
100021.28
100007.51
100002.44
100000.69
73081.111
73109.565
73140.517
73182.684
73246.374
73320.258
73423.129
73536.981
73674.308
73849.059
74036.151
74293.578
74559.646
74926.285
75315.146
75828.071
76396.882
77110.061
77926.464
78909.872
80043.575
81361.97
82850.124
84499.726
86260.532
88065.197
89824.628
91454.461
92895.308
94124.527
95123.666
95906.386
96545.145
96993.226
97223.424
97313.573
97375.181
98209.508
99674.072
100530.16
100868.37
100937.78
100548.11
100278.59
100127.69
100053.41
100020.52
100007.27
100002.39
100000.69
73377.782
73407.758
73440.241
73484.374
73551.908
73628.464
73735.392
73854.091
73996.284
74178.875
74372.865
74641.769
74918.497
75300.89
75706.084
76239.908
76832.336
77573.048
78421.468
79440.43
80613.631
81972.529
83499.544
85179.806
86955.821
88752.786
90478.032
92048.734
93412.696
94556.265
95467.469
96167.69
96730.059
97113.6
97309.846
97389.508
97499.451
98482.493
99887.097
100678.14
100957.98
100944.54
100537.98
100270.88
100123.34
100051.42
100019.76
100007.03
100002.33
100000.69
73686.621
73718.398
73752.633
73799.019
73870.721
73950.206
74061.659
74185.784
74333.324
74524.579
74726.214
75007.585
75295.869
75694.863
76117.363
76672.884
77290.224
78059.876
78942.104
79998.495
81213.105
82614.057
84180.616
85890.665
87679.018
89463.606
91149.047
92655.098
93937.902
94993.281
95814.717
96430.378
96915.879
97243.235
97411.42
97481.233
97657.451
98754.652
100084.29
100813.63
101060.61
100946.34
100526.93
100262.54
100118.81
100049.4
100019
100006.8
100002.29
100000.69
74010.405
74043.933
74079.868
74128.403
74203.967
74286.339
74402.492
74532.722
74686.229
74887.004
75096.905
75391.424
75691.743
76107.914
76548.475
77126.669
77770.253
78570.289
79488.14
80583.817
81841.64
83285.939
84892.253
86630.477
88427.416
90194.1
91833.454
93269.004
94466.654
95432.19
96162.828
96692.864
97102.797
97381.006
97526.698
97591.063
97850.939
99027.332
100267.35
100935.9
101158.41
100940.13
100514.04
100253.59
100114.18
100047.4
100018.27
100006.58
100002.24
100000.69
74348.014
74383.445
74421.17
74472.027
74551.391
74637.466
74759.17
74896.284
75056.095
75266.743
75484.924
75792.831
76105.505
76539.385
76998.993
77600.855
78272.26
79104.353
80059.794
81196.708
82499.497
83988.243
85634.045
87398.133
89199.015
90941.453
92527.735
93886.799
94995.843
95870.557
96509.782
96954.158
97291.623
97526.424
97653.741
97720.509
98074.433
99302.871
100438.34
101041.16
101243.68
100923.56
100498.99
100244.21
100109.51
100045.43
100017.55
100006.37
100002.2
100000.69
74700.476
74738.059
74777.915
74831.576
74915.446
75006.469
75133.003
75276.591
75442.173
75662.571
75888.957
76210.664
76536.293
76988.749
77468.607
78095.485
78796.399
79662.269
80657.278
81837.33
83186.679
84720.623
86405.052
88191.836
89991.068
91702.034
93227.691
94504.529
95522.631
96305.82
96852.886
97212.875
97482.662
97679.267
97789.391
97869.233
98317.558
99580.785
100601.17
101129.29
101309.27
100901.64
100482.54
100234.61
100104.87
100043.5
100016.87
100006.18
100002.17
100000.7
75066.462
75106.16
75148.033
75204.624
75293.434
75389.1
75520.052
75670.257
75841.864
76072.679
76307.862
76644.278
76983.858
77455.947
77957.504
78610.735
79343.001
80244.506
81281.152
82506.261
83903.651
85483.226
87204.801
89010.233
90801.227
92472.591
93929.82
95119.533
96045.814
96735.942
97189.493
97468.068
97676.134
97838.766
97931.534
98034.272
98574.624
99855.34
100761.21
101204.42
101346.92
100876.7
100465.27
100224.93
100100.28
100041.62
100016.21
100005.99
100002.14
100000.7
75442.418
75484.569
75528.824
75588.819
75682.147
75782.628
75918.979
76076.664
76254.908
76497.086
76741.778
77093.885
77448.446
77941.296
78466.032
79147.115
79912.581
80851.597
81931.925
83203.929
84650.614
86275.8
88032.267
89851.254
91626.315
93249.15
94630.368
95729.613
96564.277
97157.829
97516.549
97718.444
97870.908
98002.54
98078.861
98208.947
98843.619
100116.18
100920.91
101275.06
101366.16
100849.81
100447.54
100215.27
100095.79
100039.81
100015.59
100005.82
100002.11
100000.71
75833
75877.385
75923.622
75986.784
76084.443
76189.491
76331.187
76496.827
76682.056
76936.356
77191.178
77559.917
77930.531
78445.272
78994.731
79705.13
80505.748
81484.261
82610.375
83931.081
85428.119
87098.415
88886.689
90713.01
92463.334
94028.243
95326.818
96334.063
97075.874
97567.33
97833.179
97963.574
98065.961
98168.812
98230.164
98387.566
99121.681
100352.18
101074.79
101352.25
101374.99
100821.77
100429.61
100205.7
100091.42
100038.08
100015
100005.66
100002.08
100000.72
76231.908
76279.125
76328.1
76395.384
76498.179
76608.986
76756.715
76931.134
77123.702
77390.964
77656.511
78042.837
78430.621
78968.364
79544.15
80285.427
81123.198
82143.245
83317.22
84688.319
86236.441
87950.69
89766.633
91592.778
93308.507
94806.156
96017.212
96931.776
97574.677
97961.27
98138.54
98202.858
98259.748
98335.698
98384.158
98571.313
99396.638
100563.93
101214.65
101449.48
101377.27
100793.3
100411.61
100196.27
100087.17
100036.42
100014.44
100005.51
100002.06
100000.73
76646.165
76696.168
76747.884
76819.117
76927.078
77043.545
77196.677
77380.146
77580.301
77861.258
78138.219
78543.084
78949.205
79511.088
80114.864
80888.674
81765.738
82829.473
84053.408
85476.5
87076.09
88832.403
90670.69
92487.818
94158.338
95580.281
96700.952
97519.836
98054.792
98337.164
98432.89
98436.02
98451.642
98501.97
98540.247
98766.523
99663.167
100755.09
101344.52
101551.63
101360.07
100764.95
100393.61
100187.01
100083.08
100034.84
100013.92
100005.37
100002.05
100000.74
77071.972
77124.846
77179.347
77254.558
77368.016
77490.649
77649.988
77843.603
78052.006
78347.666
78636.722
79061.067
79486.753
80073.969
80707.56
81515.711
82434.295
83543.912
84819.843
86296.341
87947.265
89742.797
91596.686
93394.613
95009.066
96348.689
97376.79
98090.894
98511.578
98694.405
98716.197
98661.47
98641.374
98666.309
98698.289
98976.487
99922.136
100929.37
101461.11
101643.16
101323.68
100735.33
100375.59
100178
100079.16
100033.34
100013.42
100005.25
100002.03
100000.75
77510.005
77566.171
77624.058
77703.912
77823.897
77953.287
78118.675
78322.872
78539.494
78850.617
79152.341
79597.145
80043.777
80657.658
81323.021
82167.461
83129.917
84287.689
85617.641
87148.726
88850.286
90681.037
92542.306
94309.725
95857.883
97110.791
98040.835
98638.25
98942.546
99038.648
98986.577
98877.569
98827.707
98828.448
98858.905
99195.932
100176.47
101089.45
101558.71
101715.2
101278.73
100704.38
100357.75
100169.28
100075.43
100031.92
100012.97
100005.14
100002.02
100000.76
77963.01
78022.411
78083.784
78168.216
78294.53
78430.328
78601.865
78817.059
79042.369
79370.015
79685.424
80151.78
80620.936
81262.928
81962.2
82845.024
83853.755
85061.975
86447.857
88034.371
89785.02
91645.561
93504.334
95229.333
96702.489
97865.324
98684.946
99157.171
99351.236
99369.093
99242.51
99084.63
99007.704
98988.69
99022.852
99419.091
100426.54
101238.16
101636.5
101759.23
101230.02
100672.9
100340.29
100160.92
100071.87
100030.59
100012.54
100005.03
100002.02
100000.77
78426.954
78489.879
78555.132
78644.286
78777.1
78920.386
79099.086
79326.596
79561.175
79906.597
80236.663
80725.675
81219.044
81890.751
82626.178
83549.589
84607.084
85868.114
87311.727
88954.081
90751.249
92634.515
94479.427
96150.232
97541.873
98607.677
99302.128
99645.444
99743.81
99682.369
99483.784
99282.457
99180.93
99146.956
99191.648
99649.2
100667.31
101378.02
101699.93
101781.54
101179.62
100641.55
100323.38
100152.92
100068.51
100029.33
100012.14
100004.94
100002.01
100000.79
78903.063
78969.884
79039.638
79134.066
79273.981
79425.641
79611.921
79852.848
80096.865
80460.943
80806.694
81319.557
81839.075
82542.226
83316.167
84282.473
85391.293
86707.496
88210.42
89908.352
91748.091
93645.158
95463.668
97069.438
98374.85
99329.146
99886.987
100107.54
100119.09
99976.756
99709.935
99470.227
99347.436
99303.137
99366.673
99888.729
100890.04
101508.81
101762.05
101791.69
101128.82
100610.81
100307.12
100145.31
100065.33
100028.15
100011.76
100004.85
100002.01
100000.81
79393.65
79464.614
79539.383
79639.364
79786.395
79946.977
80140.698
80395.9
80649.651
81033.399
81396.277
81934.451
82482.235
83218.584
84033.444
85045.124
86207.951
87581.699
89145.202
90897.589
92774.316
94674.434
96453.522
97985.008
99197.501
100021.6
100436.64
100550.23
100473.68
100251.86
99920.781
99647.646
99507.615
99457.137
99548.746
100135.26
101089.12
101631.69
101838.44
101794.52
101078.88
100581.06
100291.58
100138.09
100062.33
100027.05
100011.42
100004.77
100002.01
100000.82
79898.841
79974.113
80054.273
80159.75
80313.683
80483.849
80684.808
80955.284
81220.026
81625.008
82006.715
82571.634
83149.717
83921.062
84779.427
85839.198
87058.812
88492.342
90117.174
91921.635
93827.837
95718.568
97445.571
98895.398
100000.81
100678.87
100955.9
100971.77
100806.28
100507.44
100115.95
99814.463
99661.519
99608.53
99736.863
100378.84
101270.18
101751.83
101924.96
101775.35
101030.95
100552.47
100276.73
100131.24
100059.5
100026.01
100011.1
100004.71
100002.02
100000.84
80418.28
80497.861
80583.529
80694.529
80855.527
81036.152
81245.747
81532.832
81809.706
82237.397
82639.378
83232.147
83842.6
84650.992
85555.788
86666.637
87945.82
89441.151
91127.315
92979.975
94906.052
96773.872
98437.123
99798.561
100774.63
101296.87
101451.89
101368.71
101116.61
100743.58
100295.52
99970.895
99809.141
99756.617
99926.171
100615.79
101435.67
101862.79
102007.3
101728.71
100985.8
100524.96
100262.55
100124.76
100056.84
100025.04
100010.8
100004.64
100002.03
100000.86
80950.086
81034.383
81126.94
81245.41
81414.467
81606.444
81825.399
82130.845
82420.105
82871.446
83294.981
83916.799
84562.101
85410.135
86364.627
87529.651
88871.018
90429.723
92176.172
94071.217
96005.491
97836.433
99425.686
100685.87
101511.93
101879.28
101923.31
101739.68
101404.42
100960.12
100459.68
100117.23
99950.351
99900.329
100108.85
100845.75
101585.84
101956.97
102075.79
101664.61
100940.61
100498.26
100249.03
100118.65
100054.35
100024.14
100010.52
100004.59
100002.04
100000.89
81495.255
81585.236
81686.729
81815.269
81993.243
82196.872
82424.918
82749.399
83051.358
83527.141
83974.129
84626.845
85310.141
86200.811
87208.365
88430.568
89836.478
91459.548
93263.903
95193.368
97122.387
98902.774
100409.11
101546.86
102207.03
102433.09
102366.68
102084.58
101669.64
101156.66
100609.45
100254.13
100085.42
100039.19
100286.46
101067.66
101721.01
102030.98
102118.56
101593.6
100895.18
100472.45
100236.18
100112.89
100052.01
100023.3
100010.27
100004.54
100002.05
100000.91
82062.613
82158.843
82266.978
82402.507
82590.002
82806.101
83042.931
83387.647
83703.612
84205.221
84678.467
85364.616
86089.394
87025.76
88089.554
89371.727
90844.164
92531.779
94389.901
96343.487
98252.581
99969.432
101381.88
102371.64
102860.27
102959.65
102779.79
102403.37
101912.12
101332.39
100745.99
100382.24
100215.25
100174.48
100472.87
101276.51
101841.37
102089.18
102139.5
101520.08
100850.2
100447.69
100224.06
100107.5
100049.83
100022.51
100010.04
100004.5
100002.07
100000.94
82650.396
82752.784
82866.479
83007.01
83203.085
83433.233
83679.573
84046.111
84378.422
84908.34
85411.068
86133.267
86902.82
87887.719
89010.685
90355.433
91895.969
93647.233
95552.893
97518.07
99392.191
101033.64
102333.59
103153.12
103477.7
103455.65
103162.55
102696.45
102131.95
101487.42
100870.45
100502.45
100341.37
100309.21
100672.99
101464.98
101950.27
102144.67
102148.34
101446.24
100806.41
100424.18
100212.66
100102.45
100047.79
100021.78
100009.82
100004.47
100002.08
100000.97
83250.427
83359.5
83481.433
83630.215
83834.28
84080.344
84337.488
84728.54
85079.64
85640.389
86175.499
86935.805
87753.071
88789.207
89974.172
91383.96
92993.596
94806.091
96750.591
98712.847
100537.11
102092.03
103251.92
103886.95
104065.08
103917.11
103515.06
102964.13
102329.28
101622.91
100983.52
100615.85
100464.4
100445.92
100878.87
101630.79
102052.91
102211.82
102150.61
101373.77
100764.43
100402.04
100202
100097.74
100045.89
100021.1
100009.62
100004.44
100002.11
100001
83867.385
83984.263
84114.967
84273.289
84486.865
84752.222
85021.832
85440.036
85811.491
86404.577
86974.417
87774.554
88642.419
89732.631
90982.456
92459.586
94138.507
96007.873
97979.975
99923.503
101683.33
103135.91
104127.61
104577.3
104619.5
104343.7
103837.95
103207.03
102504.37
101740.27
101086.66
100724.12
100583.01
100586.47
101081.84
101780.53
102151.94
102284.45
102134.92
101304.61
100724.85
100381.33
100192.05
100093.34
100044.11
100020.46
100009.44
100004.42
100002.13
100001.03
84509.211
84634.452
84774.212
84944.113
85168.654
85454.508
85736.975
86183.544
86576.249
87202.413
87809.488
88651.509
89573.204
90720.633
92038.165
93584.565
95331.664
97251.129
99237.057
101145.55
102826.89
104152.44
104952.64
105231.66
105136.36
104735.46
104131.86
103425.64
102657.38
101840.77
101180.96
100827.71
100695.9
100731.89
101278.67
101917.55
102243.9
102354.59
102094.88
101240.77
100688
100361.99
100182.74
100089.22
100042.46
100019.87
100009.28
100004.4
100002.16
100001.06
85178.543
85312.903
85462.766
85646.759
85882.167
86188.414
86482.865
86958.775
87374.395
88034.964
88682.5
89569.12
90548.227
91756.174
93144.096
94761.005
96573.446
98533.509
100517.46
102374.51
103962.86
105128.34
105726.77
105850.64
105613.66
105093.07
104397.86
103620.86
102789.02
101925.64
101267.16
100926.32
100804.45
100881.09
101469.02
102042.17
102323.9
102415.24
102032.1
101183.41
100653.69
100343.86
100174.01
100085.37
100040.91
100019.32
100009.13
100004.39
100002.19
100001.1
85873.252
86017.477
86177.88
86376.048
86621.714
86951.128
87258.628
87765.778
88207.394
88904.425
89596.179
90530.518
91570.73
92842.47
94303.065
95990.634
97863.256
99851.525
101816.28
103605.35
105078.76
106053.95
106455.67
106429.95
106051.25
105417.32
104636.91
103793.82
102901.3
101995.78
101345.92
101020.31
100910.14
101032.82
101651.62
102153.71
102386.47
102449.09
101954.62
101129.07
100621.16
100326.74
100165.81
100081.77
100039.47
100018.82
100008.99
100004.39
100002.22
100001.14
86589.764
86745.483
86917.368
87131.647
87389.046
87745.139
88067.098
88607.755
89078.269
89814.045
90553.98
91539.317
92644.205
93982.81
95517.736
97274.61
99199.499
101200.85
103128.47
104833.04
106160.03
106922.67
107146.09
106964.91
106449.69
105709.44
104850.26
103945.83
102997.36
102052.78
101418.42
101111.17
101014.77
101188.79
101821.02
102251.73
102435.58
102464.2
101871.32
101075.59
100590.01
100310.57
100158.12
100078.41
100038.13
100018.35
100008.87
100004.39
100002.26
100001.19
87339.715
87507.468
87690.736
87922.28
88188.653
88573.7
88911.685
89487.342
89990.551
90767.531
91559.794
92599.386
93772.264
95180.496
96790.522
98613.244
100579.38
102576.32
104448.15
106048.62
107192.84
107737.55
107794.14
107454.9
106809.81
105970.77
105039.23
104077.77
103077.53
102099.51
101485.93
101200.34
101120.04
101351.41
101970.26
102338.66
102482.87
102469.27
101785.55
101022.9
100560.2
100295.32
100150.94
100075.28
100036.89
100017.92
100008.76
100004.4
100002.3
100001.24
88114.227
88296.699
88493.473
88745.855
89023.129
89439.461
89795.353
90409.143
90948.413
91769.08
92617.674
93714.656
94958.584
96438.792
98123.395
100005.85
101999.04
103972.54
105769.2
107236.98
108166.54
108506.63
108394.37
107900.24
107132.92
106203
105205.66
104190.36
103133.28
102139.96
101550.19
101289.45
101227.02
101517.59
102100.03
102418.29
102535.97
102468.03
101699.19
100971.5
100531.88
100281.03
100144.26
100072.38
100035.74
100017.53
100008.67
100004.41
100002.35
100001.29
88925.176
89123.877
89333.423
89607.625
89896.459
90347.098
90722.905
91376.83
91956.217
92822.708
93731.46
94889.041
96206.855
97760.813
99517.574
101450.35
103453.29
105383.21
107084.64
108381.07
109078.48
109230.35
108943.96
108301.69
107420.48
106407.76
105351.38
104285.13
103161.57
102174.4
101612.64
101379.62
101335.52
101680.99
102217.3
102495.09
102593.24
102451.24
101614
100922.06
100505.22
100267.73
100138.07
100069.7
100034.68
100017.17
100008.59
100004.43
100002.4
100001.35
89772.701
89989.151
90211.812
90510.769
90812.177
91300.51
91698.463
92394.504
93017.873
93932.302
94905.083
96126.666
97521.017
99149.403
100973.29
102943.37
104936.19
106801.07
108380.92
109467.16
109934.09
109903.52
109442.86
108660.6
107674.42
106586.93
105477.5
104362.25
103172.18
102204.3
101674.31
101469.98
101444.93
101837.42
102326.56
102571.53
102653.88
102418.53
101531.88
100875.32
100480.41
100255.42
100132.35
100067.22
100033.69
100016.84
100008.52
100004.46
100002.46
100001.41
90661.355
90897.587
91134.574
91461.978
91775.98
92304.186
92725.813
93465.15
94136.94
95101.952
96142.922
97432.184
98905.102
100606.8
102489.35
104480
106440.95
108217.84
109639.71
110485.37
110740.54
110520.09
109891.66
108978.64
107896.92
106742.81
105584.58
104412.6
103173.56
102231.63
101735.98
101557.21
101555.39
101987.1
102428.01
102644.75
102713.74
102369.67
101454.9
100831.97
100457.57
100244.1
100127.06
100064.92
100032.78
100016.54
100008.47
100004.5
100002.52
100001.48
91595.742
91853.671
92104.996
92463.258
92789.35
93359.313
93808.223
94592.199
95317.752
96336.823
97450.337
98810.743
100363.02
102134.12
104062.95
106053.97
107959.69
109623.06
110842.27
111437.91
111492.67
111079.4
110291.66
109257.93
108090.42
106878.14
105674.71
104437.12
103165.02
102258.05
101798
101638.95
101669.32
102131.37
102522.25
102707.79
102759.81
102306.14
101385.28
100792.51
100436.67
100233.67
100122.17
100062.78
100031.94
100016.26
100008.42
100004.54
100002.59
100001.56
92576.015
92857.734
93122.638
93514.425
93853.447
94468.734
94949.868
95781.155
96566.395
97643.408
98833.448
100267.68
101897.98
103731.02
105689.41
107657.76
109482.68
110997.19
111974.24
112333.06
112183.32
111581.72
110644.63
109500.77
108257.26
106994.97
105750.24
104445.86
103148.66
102284.09
101859.74
101717.87
101788.01
102268.48
102608.57
102757.18
102783.07
102229.98
101324.64
100756.83
100417.47
100224.01
100117.62
100060.79
100031.16
100016.02
100008.4
100004.59
100002.66
100001.64
93601.672
93909.74
94189.092
94619.989
94974.203
95639.229
96158.015
97039.463
97890.36
99028.993
100298.53
101807.77
103511.85
105394.98
107362.13
109282.54
110998.93
112318.98
113032.29
113169.29
112809.54
112028.31
110952.86
109709.85
108399.82
107093.73
105805.78
104440.2
103128.77
102309.96
101921.13
101795.93
101913.17
102391.7
102684.16
102800.48
102792.36
102148.25
101269.42
100723.88
100399.63
100215.02
100113.39
100058.95
100030.44
100015.8
100008.38
100004.65
100002.75
100001.73
94680.163
95019.608
95314.881
95790.902
96161.567
96879.446
97441.631
98375.315
99297.525
100500.87
101851.43
103434.68
105204.57
107121.28
109072.64
110917.17
112490.27
113569.46
114021.88
113939.21
113371.19
112420.97
111219.02
109888.05
108520.76
107174.94
105836.1
104415.34
103110.12
102335.89
101982.74
101875.05
102043.2
102497.44
102750.91
102847.11
102794.85
102065.34
101216.8
100692.87
100382.91
100206.61
100109.44
100057.23
100029.78
100015.6
100008.38
100004.72
100002.85
100001.83
95822.222
96198.897
96508.744
97035.966
97423.995
98197.654
98809.516
99797.186
100795.55
102066.01
103497.1
105150.46
106973.8
108902.82
110810.93
112548.76
113933.2
114737.96
114946.98
114636.91
113869.39
112762.31
111446.12
110038.3
108622.98
107241.39
105848.68
104375.87
103092.36
102362.31
102045
101955.84
102170.57
102590.72
102812.92
102894.98
102786.88
101983.22
101166.09
100663.48
100367.18
100198.74
100105.76
100055.65
100029.19
100015.44
100008.39
100004.8
100002.95
100001.95
97033.946
97455.375
97778.239
98363.443
98770.579
99602.787
100271.39
101313.63
102391.38
103730.35
105239.28
106955.17
108814.67
110730.24
112564.48
114160.18
115303.66
115826.93
115799.65
115261.72
114306.12
113055.3
111637.21
110163.4
108708.74
107295.54
105848.6
104325.47
103075.35
102389.77
102107.97
102037.84
102291.34
102675.03
102871.57
102941.83
102765.22
101902.48
101117.2
100635.61
100352.41
100191.41
100102.36
100054.2
100028.65
100015.3
100008.42
100004.9
100003.07
100002.07
98319.823
98796.597
99132.169
99783.469
100211.99
101103.67
101836.45
102932.58
104090.81
105498.7
107080.26
108846.62
110719.71
112591.92
114317.86
115724.92
116584.48
116844.33
116571.25
115814.49
114684.15
113303.14
111795.36
110266.13
108779.31
107331.73
105832.48
104266.91
103059.32
102418.99
102171.65
102119.98
102404.26
102753.86
102927.8
102986.91
102731.38
101823.54
101070.14
100609.23
100338.58
100184.6
100099.22
100052.88
100028.17
100015.19
100008.47
100005
100003.2
100002.22
99689.807
100231.58
100575.78
101302.31
101757.37
102705.35
103510.61
104661.12
105899.5
107375.2
109020.81
110819.93
112678.38
114473.46
116052.54
117214.52
117775.32
117781.05
117260.47
116297.21
115006.61
113508.96
111923.73
110349.64
108836.58
107352.01
105801.68
104201.91
103044.69
102450.28
102235.77
102201.18
102510.92
102828.62
102982.28
103030.5
102687.58
101746.62
101025.17
100584.43
100325.73
100178.32
100096.35
100051.68
100027.74
100015.11
100008.53
100005.13
100003.35
100002.38
101178.65
101784.98
102111.16
102917.36
103412.69
104411.18
105297.44
106506.5
107824.25
109363.72
111059.23
112866.56
114676.69
116355.83
117738.25
118606.39
118885.44
118626.46
117867.82
116712.8
115277
113676.35
112026.17
110417.48
108883.19
107362.35
105757.16
104132.4
103032.44
102483.96
102299.46
102281.27
102611.64
102898.61
103033.68
103071.85
102636.23
101672.74
100982.73
100561.39
100313.91
100172.6
100093.75
100050.59
100027.36
100015.05
100008.61
100005.27
100003.51
100002.55
102772.12
103451.92
103763.16
104642.02
105190.17
106234.51
107205.1
108477.02
109872.32
111466.39
113189.94
114973.32
116696.28
118216.11
119343.08
119897.88
119904.03
119378.41
118395.35
117064.91
115499.48
113810.29
112107.69
110472.77
108918.39
107364.68
105697.89
104062.62
103023.97
102520.52
102360.45
102361.42
102707.23
102963.07
103078.95
103108.26
102578.52
101604.08
100943.51
100540.33
100303.18
100167.41
100091.39
100049.62
100027.04
100015.02
100008.71
100005.43
100003.7
100002.75
104479.82
105230.46
105541.01
106490.79
107108.31
108200.5
109254.09
110584.46
112049.44
113680.8
115401.44
117121.98
118713.28
120020.09
120840.55
121096.78
120818.98
120037.18
118846.44
117358.11
115679.6
113917.06
112172.5
110516.61
108942.76
107356.95
105620.96
103999.6
103020.08
102558.87
102417.04
102444.73
102796.3
103022.08
103115.84
103128.8
102515.62
101541.98
100908.18
100521.4
100293.53
100162.74
100089.26
100048.73
100026.75
100015.02
100008.83
100005.61
100003.91
100002.98
106331.55
107156.72
107483.79
108487.97
109181.6
110322.25
111456.8
112844.72
114356.93
115995.97
117674.74
119288.18
120699.01