/*--------------------------------*- C++ -*----------------------------------*\
  =========                 |
  \\      /  F ield         | OpenFOAM: The Open Source CFD Toolbox
   \\    /   O peration     | Website:  https://openfoam.org
    \\  /    A nd           | Version:  8
     \\/     M anipulation  |
\*---------------------------------------------------------------------------*/
FoamFile
{
    version     2.0;
    format      ascii;
    class       surfaceScalarField;
    location    "0.0199971";
    object      phi;
}
// * * * * * * * * * * * * * * * * * * * * * * * * * * * * * * * * * * * * * //

dimensions      [1 0 -1 0 0 0 0];

internalField   nonuniform List<scalar> 
39600
(
-0.00018106006
-0.0082794092
0.0084182055
-0.00021258843
-0.01151384
0.011542632
-0.00025135116
-0.015078182
0.015112935
-0.00030480536
-0.019429041
0.019475844
-0.00037398388
-0.024890846
0.024952986
-0.00045485349
-0.031838479
0.031909391
-0.00068910929
-0.039885805
0.040107677
-0.0010681147
-0.048281749
0.048643516
-0.0015230694
-0.057624909
0.058057728
-0.0020620136
-0.069220719
0.069732279
-0.0027085677
-0.082755696
0.08336301
-0.0034824896
-0.099292686
0.10002133
-0.0043955864
-0.11883187
0.11968921
-0.0054837703
-0.14251247
0.14353418
-0.0067727702
-0.17064926
0.17186697
-0.008301631
-0.20459818
0.20604153
-0.010115092
-0.24509636
0.24681647
-0.012266695
-0.29384411
0.29588355
-0.014824647
-0.35212641
0.35454958
-0.017866557
-0.42213877
0.42501532
-0.021470813
-0.50591769
0.50932148
-0.02574034
-0.60637274
0.61039779
-0.030788626
-0.72652323
0.73127282
-0.03675577
-0.8702261
0.87582933
-0.043801454
-1.0417031
1.0483094
-0.052129697
-1.2460277
1.2538288
-0.061984175
-1.4889757
1.4982237
-0.073675909
-1.7775156
1.7885365
-0.08760114
-2.1200198
2.1332228
-0.10424401
-2.5269966
2.5428524
-0.12411013
-3.0108297
3.0298942
-0.14772428
-3.5869217
3.6097039
-0.17564093
-4.27377
4.3007993
-0.20832736
-5.0964065
5.1281765
-0.24735765
-6.0810393
6.1193067
-0.29429109
-7.2534375
7.2992823
-0.34367339
-8.6624279
8.7101601
-0.40012799
-10.363993
10.417037
-0.47327085
-12.412785
12.482306
-0.54854352
-14.85987
14.940908
-0.63249173
-17.743304
17.834347
-0.70962313
-21.228945
21.311452
-0.79162224
-25.439984
25.525494
-0.87635678
-30.49612
30.578854
-0.94732098
-36.562267
36.631433
-0.98531184
-43.840133
43.876877
-0.96287251
-52.578702
52.556022
-0.84009787
-63.077885
62.955348
-0.55627254
-75.698957
75.415653
-90.877471
90.342269
-5.5736681e-05
-0.0082500894
-9.0258427e-05
-0.011475031
-0.00013819841
-0.015029029
-0.00019903942
-0.019368857
-0.00027935734
-0.024815328
-0.00036949665
-0.031755366
-0.00061279248
-0.039651462
-0.00097260698
-0.047932295
-0.0014074917
-0.057204387
-0.0019272306
-0.068717792
-0.0025368963
-0.082165111
-0.0032633205
-0.098590008
-0.0041221621
-0.11800545
-0.0051504174
-0.14152481
-0.0063745674
-0.16947686
-0.0078357689
-0.20319974
-0.0095752579
-0.24343071
-0.011650389
-0.29186147
-0.014119612
-0.34977176
-0.017062566
-0.41933696
-0.020555054
-0.50259888
-0.024705976
-0.60243726
-0.029627714
-0.72186854
-0.035468516
-0.86471532
-0.042391492
-1.0351839
-0.050608154
-1.2383019
-0.060360437
-1.4798009
-0.071952643
-1.7665742
-0.085767991
-2.1069223
-0.10226309
-2.5112501
-0.12191176
-2.9919468
-0.14522
-3.5644007
-0.17271102
-4.2471289
-0.20481839
-5.0652003
-0.24362359
-6.0429849
-0.28856563
-7.2095449
-0.33828404
-8.6145456
-0.39526433
-10.310416
-0.46487776
-12.346262
-0.53964051
-14.778249
-0.61794665
-17.657851
-0.69652404
-21.145705
-0.77864377
-25.354928
-0.86322979
-30.413604
-0.93439586
-36.492924
-0.97422686
-43.801522
-0.95636317
-52.596832
-0.84210331
-63.191943
-0.57295269
-75.967587
-91.388895
-5.9217466e-05
-0.0082068335
-0.00010097081
-0.011425918
-0.0001537038
-0.014972579
-0.00021832158
-0.019302025
-0.00029736235
-0.024738003
-0.00038037519
-0.031676716
-0.00061758396
-0.039422237
-0.00095518913
-0.047606644
-0.0013586021
-0.056813647
-0.0018385487
-0.068252707
-0.0024088306
-0.081614754
-0.0030822175
-0.097940911
-0.0038964351
-0.11721978
-0.0048709822
-0.14058476
-0.0060297017
-0.16836006
-0.0074118435
-0.20186989
-0.0090585677
-0.24185303
-0.01102746
-0.28996878
-0.013372954
-0.34751695
-0.016172771
-0.41664717
-0.019501738
-0.49940494
-0.023468227
-0.59863823
-0.028188996
-0.71735703
-0.033815389
-0.85935152
-0.040520108
-1.028808
-0.04852418
-1.2307088
-0.058079385
-1.4707431
-0.069491143
-1.75574
-0.08312611
-2.0939778
-0.099418225
-2.495686
-0.11882493
-2.9732908
-0.14184055
-3.5421564
-0.16892875
-4.2208779
-0.200481
-5.0344279
-0.23891147
-6.0053426
-0.28229088
-7.1676943
-0.33195836
-8.5675292
-0.38998485
-10.256139
-0.45614051
-12.282172
-0.52929709
-14.697546
-0.60470932
-17.575885
-0.68379806
-21.062443
-0.7662649
-25.269782
-0.85079875
-30.330935
-0.92254323
-36.422991
-0.96456373
-43.760721
-0.95149989
-52.610209
-0.84617159
-63.297114
-0.59198223
-76.221258
-91.876147
-6.3217011e-05
-0.0081726811
-0.00011293771
-0.011385985
-0.00016514098
-0.014927073
-0.00022639604
-0.019249212
-0.0002939028
-0.024677528
-0.00036518571
-0.03161475
-0.00058968727
-0.039205879
-0.00089553237
-0.047310019
-0.0012724513
-0.056447224
-0.0017180489
-0.067819649
-0.0022602604
-0.081087659
-0.0028967385
-0.097323674
-0.0036712079
-0.11646802
-0.004593867
-0.1396894
-0.0056931504
-0.16729396
-0.0070069555
-0.20059701
-0.0085684018
-0.24034446
-0.010440904
-0.28817407
-0.012670243
-0.34538486
-0.015332731
-0.41410519
-0.018503687
-0.49638384
-0.022292158
-0.59503655
-0.026814996
-0.71306716
-0.032229931
-0.85422641
-0.038717961
-1.0226776
-0.0465092
-1.2233558
-0.055867024
-1.4619068
-0.067100845
-1.7451034
-0.080574064
-2.08115
-0.09668605
-2.4802581
-0.11587798
-2.9548103
-0.13861747
-3.5201579
-0.16535137
-4.1949265
-0.19665352
-5.0037986
-0.23429078
-5.9686349
-0.27660041
-7.1271041
-0.32490383
-8.5220764
-0.38451456
-10.200879
-0.4477741
-12.220825
-0.51906247
-14.618958
-0.59285045
-17.495591
-0.67205238
-20.979506
-0.75498304
-25.184637
-0.83959766
-30.248133
-0.91217631
-36.35217
-0.95667079
-43.717447
-0.94874618
-52.618484
-0.85255759
-63.393177
-0.61354283
-76.459755
-92.339045
-4.3499755e-05
-0.0081348677
-8.5054509e-05
-0.011344693
-0.00013161059
-0.014881229
-0.00018547241
-0.01919998
-0.00024410114
-0.024623568
-0.00030630045
-0.031559507
-0.00052847365
-0.038991535
-0.00082445987
-0.047024243
-0.0011800822
-0.056103509
-0.0016038899
-0.067412061
-0.0021139277
-0.080595066
-0.0027323878
-0.09672642
-0.0034613157
-0.11576427
-0.0043376773
-0.13884293
-0.0053797292
-0.16628869
-0.006630684
-0.19939058
-0.0081195815
-0.23891008
-0.0099006995
-0.28645379
-0.012018507
-0.34333975
-0.014551551
-0.41166093
-0.017573086
-0.49347229
-0.021191459
-0.59155564
-0.025525802
-0.70890601
-0.030737498
-0.84923411
-0.037016691
-1.016676
-0.044603176
-1.2161204
-0.05377098
-1.4531713
-0.064833894
-1.7345509
-0.07814224
-2.0684215
-0.094079191
-2.4649507
-0.1130687
-2.9364908
-0.1355582
-3.4983732
-0.16196874
-4.1692485
-0.19320242
-4.9731997
-0.22985281
-5.9330303
-0.27146088
-7.0873735
-0.31962361
-8.4768574
-0.37813697
-10.146166
-0.43997649
-12.157842
-0.50992184
-14.54215
-0.58217621
-17.416812
-0.66122505
-20.896954
-0.74483978
-25.099512
-0.82969141
-30.165044
-0.90337917
-36.280253
-0.95059817
-43.671455
-0.94803901
-52.621432
-0.8612603
-63.479858
-0.63778592
-76.682712
-92.777252
-4.6057036e-05
-0.0081050967
-8.487856e-05
-0.011310427
-0.00012865881
-0.014842726
-0.00017330575
-0.019158856
-0.00022122223
-0.02458016
-0.00027350498
-0.031512628
-0.00048807886
-0.038782435
-0.00077227488
-0.046745613
-0.0011096307
-0.055774199
-0.0015154189
-0.06701508
-0.001998544
-0.080124058
-0.0025889287
-0.096150236
-0.0032816464
-0.11508982
-0.0041148711
-0.13803237
-0.0051053369
-0.16532571
-0.0062938107
-0.19823601
-0.0077065208
-0.2375382
-0.0093984802
-0.28481144
-0.011412969
-0.34138756
-0.013824967
-0.40932706
-0.016705719
-0.49069005
-0.020163578
-0.58822254
-0.024318541
-0.70490976
-0.029336689
-0.84441845
-0.035414462
-1.0108558
-0.042803163
-1.2090585
-0.051786179
-1.4445923
-0.062682812
-1.7241322
-0.0758374
-2.0558075
-0.09161633
-2.449765
-0.11042558
-2.9183202
-0.13268646
-3.4767902
-0.15879643
-4.1438275
-0.18979812
-4.9428273
-0.22565251
-5.8983174
-0.2668605
-7.0481036
-0.31507505
-8.4315428
-0.37221696
-10.0923
-0.433896
-12.093065
-0.50191194
-14.467918
-0.57281078
-17.339233
-0.65118643
-20.815187
-0.73585929
-25.014286
-0.82113369
-30.081513
-0.89621334
-36.206974
-0.94641573
-43.622489
-0.94955801
-52.618715
-0.87252199
-63.556823
-0.66483267
-76.889885
-93.190554
-2.510194e-05
-0.0080715405
-5.7418775e-05
-0.011272631
-9.5596449e-05
-0.014802013
-0.00013621122
-0.019116618
-0.00017717825
-0.024539319
-0.00022655502
-0.031464661
-0.00043898769
-0.038572933
-0.00071039656
-0.046479623
-0.001036297
-0.055454886
-0.0014275748
-0.066633288
-0.0018917292
-0.079670725
-0.0024467004
-0.095608629
-0.0031075497
-0.114445
-0.0039011004
-0.13725795
-0.0048434304
-0.16440686
-0.0059738546
-0.19713346
-0.0073174874
-0.23622878
-0.0089277344
-0.28324302
-0.010846012
-0.33951989
-0.013144585
-0.40709071
-0.015894484
-0.48801773
-0.019201137
-0.58501354
-0.023187607
-0.70104755
-0.028023033
-0.83974265
-0.033912587
-1.0051721
-0.041115813
-1.2021215
-0.049926394
-1.4361187
-0.060667924
-1.7138004
-0.07367867
-2.0432764
-0.089313138
-2.4346725
-0.10795903
-2.9002762
-0.13001233
-3.4553855
-0.1558418
-4.118653
-0.1865603
-4.9127827
-0.22178695
-5.8642955
-0.26270107
-7.0091502
-0.31097688
-8.3861641
-0.36670377
-10.039482
-0.42776822
-12.027822
-0.49472739
-14.394957
-0.56512698
-17.262124
-0.64182777
-20.73399
-0.7280269
-24.928987
-0.81397533
-29.997358
-0.89071155
-36.132077
-0.94418656
-43.570261
-0.95333318
-52.610027
-0.88631208
-63.623796
-0.69477431
-77.080908
-93.578555
-2.4595797e-05
-0.0080407377
-5.8548991e-05
-0.0112379
-9.3440546e-05
-0.014766062
-0.00013016729
-0.01908132
-0.00016153483
-0.024509173
-0.00020783032
-0.031422471
-0.00041147636
-0.038372488
-0.00066815769
-0.046227572
-0.00097659599
-0.055152194
-0.001346403
-0.066270304
-0.0017865021
-0.079239385
-0.0023160844
-0.095089677
-0.0029439899
-0.11383025
-0.0036992767
-0.13651876
-0.0045952823
-0.16353038
-0.0056715529
-0.19608123
-0.0069509562
-0.23497825
-0.0084844649
-0.28174457
-0.010312596
-0.33773583
-0.012505275
-0.40495335
-0.015131659
-0.48546122
-0.01829779
-0.58193619
-0.02212723
-0.69733174
-0.026792742
-0.8352238
-0.032508063
-0.99964621
-0.03954083
-1.1953344
-0.048194114
-1.4277768
-0.05879488
-1.7035792
-0.071677102
-2.0308416
-0.087181578
-2.4196797
-0.10568328
-2.8823519
-0.1275509
-3.434145
-0.15311672
-4.0937151
-0.18349455
-4.8831355
-0.21837318
-5.8306676
-0.25893407
-6.9705053
-0.30711715
-8.3405265
-0.36163876
-9.9873292
-0.42169423
-11.962883
-0.48787592
-14.323114
-0.55864594
-17.185327
-0.63367045
-20.652315
-0.72136597
-24.842727
-0.80829493
-29.912394
-0.88691913
-36.055327
-0.94397597
-43.514462
-0.95940444
-52.59509
-0.90281346
-63.680361
-0.727763
-77.255447
-93.940949
-1.2932937e-05
-0.0080088949
-4.3941533e-05
-0.011204004
-7.4935593e-05
-0.014731554
-0.00010694584
-0.019049084
-0.00012995688
-0.024485176
-0.00017482379
-0.031379316
-0.00037269994
-0.038175803
-0.00061891187
-0.045985133
-0.00091240518
-0.054862745
-0.001265316
-0.065923568
-0.0016838798
-0.078828341
-0.0021881704
-0.094594863
-0.0027855513
-0.11324443
-0.0035051044
-0.13581307
-0.0043584025
-0.16269413
-0.0053841824
-0.19507583
-0.0066034062
-0.23378427
-0.0080668136
-0.28031211
-0.0098105403
-0.3360297
-0.011904287
-0.40290589
-0.014415833
-0.48300741
-0.017450544
-0.57897424
-0.021134334
-0.69374071
-0.025645006
-0.83083305
-0.031202302
-0.99424484
-0.038083226
-1.1886581
-0.04659859
-1.4195249
-0.057076029
-1.6934293
-0.06984537
-2.018469
-0.085236466
-2.4047567
-0.10361083
-2.8645244
-0.12531516
-3.4130477
-0.15064723
-4.0690053
-0.18069889
-4.8538993
-0.21531865
-5.7973376
-0.25555844
-6.9321206
-0.30338641
-8.2950814
-0.35698681
-9.9355119
-0.41604399
-11.898505
-0.48143278
-14.252189
-0.55221748
-17.109017
-0.62792968
-20.570298
-0.71606356
-24.756217
-0.80411933
-29.826421
-0.8848893
-35.976461
-0.94583806
-43.454781
-0.96788435
-52.573563
-0.92206388
-63.726177
-0.76392061
-77.41308
-94.277341
-1.3732953e-05
-0.0079814266
-4.250989e-05
-0.011175265
-7.1316477e-05
-0.014703058
-9.6841972e-05
-0.019024482
-0.00011020457
-0.024472972
-0.00015370997
-0.031338436
-0.00034407188
-0.037987597
-0.00057690715
-0.045755591
-0.0008552508
-0.054588463
-0.0011906808
-0.065593541
-0.0015884358
-0.078437136
-0.0020690374
-0.094122375
-0.0026377964
-0.11268568
-0.0033241212
-0.13513899
-0.0041376403
-0.16189552
-0.0051167874
-0.19411495
-0.0062807369
-0.2326423
-0.0076774887
-0.27894213
-0.0093425962
-0.33439824
-0.01134307
-0.40094755
-0.013747617
-0.48065602
-0.016660732
-0.57612853
-0.02021129
-0.69027651
-0.024581545
-0.82657459
-0.029999873
-0.98897199
-0.036749773
-1.1820989
-0.045147461
-1.4113721
-0.055522886
-1.6833596
-0.068197855
-2.0061668
-0.083493194
-2.3899063
-0.10175873
-2.8467873
-0.12332323
-3.3920773
-0.14859643
-4.0443637
-0.17823602
-4.8251424
-0.21260854
-5.7642794
-0.25263301
-6.8938951
-0.29993445
-8.250081
-0.35275431
-9.8832323
-0.41093569
-11.834564
-0.47582558
-14.181854
-0.54680989
-17.03301
-0.62343026
-20.48818
-0.71210207
-24.669236
-0.80151134
-29.739185
-0.88469469
-35.895209
-0.94984325
-43.390909
-0.97889656
-52.545051
-0.94420948
-63.760875
-0.80334058
-77.553441
-94.587244
-2.9774414e-06
-0.0079550799
-2.8623342e-05
-0.01114836
-5.2815522e-05
-0.014677787
-7.3322585e-05
-0.01900405
-7.7535379e-05
-0.024468864
-0.00012294752
-0.031294526
-0.00030917138
-0.037802772
-0.00053272825
-0.045535046
-0.00079841172
-0.054326207
-0.0011192456
-0.065277502
-0.0014986549
-0.078063675
-0.0019578725
-0.093670537
-0.0025004861
-0.1121521
-0.0031560824
-0.13449426
-0.0039327764
-0.16113215
-0.0048683806
-0.19319539
-0.0059811275
-0.23154937
-0.0073161573
-0.27763138
-0.008906696
-0.33283726
-0.010819694
-0.39907097
-0.013124583
-0.47839655
-0.01592596
-0.57338428
-0.019355898
-0.6869194
-0.023602498
-0.82242215
-0.028900568
-0.98379677
-0.035541884
-1.1756196
-0.04384616
-1.4032777
-0.054141971
-1.6733301
-0.066743606
-1.9938973
-0.081961716
-2.375096
-0.10013711
-2.8291133
-0.12158231
-3.3712144
-0.14676338
-4.0198511
-0.17613963
-4.7967073
-0.21024057
-5.7314939
-0.25016224
-6.8557411
-0.29697107
-8.2055401
-0.34903565
-9.8302483
-0.40649162
-11.771004
-0.47099484
-14.112045
-0.54248433
-16.957073
-0.62013818
-20.405985
-0.70953127
-24.581964
-0.80051451
-29.650474
-0.88638666
-35.811291
-0.95607155
-43.322505
-0.99247013
-52.509211
-0.96934148
-63.784026
-0.8462662
-77.676007
-94.870293
2.7361899e-06
-0.0079318242
-1.8927946e-05
-0.011125785
-3.7426585e-05
-0.014658139
-5.1543686e-05
-0.018990561
-4.5237483e-05
-0.024475644
-9.4095565e-05
-0.031247976
-0.00027361874
-0.037624864
-0.00048640494
-0.04532512
-0.00073935956
-0.054076548
-0.0010460394
-0.064975304
-0.0014078714
-0.077707226
-0.0018469323
-0.093238062
-0.00236487
-0.11164234
-0.0029916129
-0.13387732
-0.0037337559
-0.16040215
-0.0046285165
-0.19231523
-0.00568973
-0.230506
-0.0069613574
-0.27638135
-0.0084801766
-0.33134555
-0.010311338
-0.39727368
-0.012525843
-0.47622466
-0.015230615
-0.57073339
-0.018557511
-0.68366143
-0.02269639
-0.81837238
-0.02789592
-0.97871345
-0.034452161
-1.1692162
-0.042688552
-1.3952386
-0.052929138
-1.6633391
-0.065480069
-1.9816592
-0.080641802
-2.3603223
-0.098746674
-2.8114934
-0.12009483
-3.3504421
-0.1451688
-3.9954783
-0.17433794
-4.7685233
-0.20826455
-5.6988859
-0.24808203
-6.8175474
-0.29449145
-8.1609866
-0.34578511
-9.776718
-0.40287785
-11.707603
-0.46691979
-14.042727
-0.53919023
-16.880942
-0.61807926
-20.323351
-0.70841284
-24.493898
-0.80117742
-29.560046
-0.89003312
-35.724402
-0.96459043
-43.24923
-1.008757
-52.465617
-0.9975817
-63.795233
-0.89272752
-77.780352
-95.125912
1.0353713e-05
-0.0079090296
-8.6590947e-06
-0.011105004
-2.3326536e-05
-0.014641475
-3.2690391e-05
-0.018981191
-1.867914e-05
-0.024489235
-7.4193095e-05
-0.031193882
-0.00024492629
-0.037454866
-0.00044995784
-0.045122638
-0.00069185269
-0.053837181
-0.00098594679
-0.064685251
-0.0013313893
-0.077366489
-0.0017515564
-0.092824036
-0.002246107
-0.11115508
-0.0028457129
-0.13328678
-0.0035551433
-0.15970362
-0.0044080964
-0.19147562
-0.0054147461
-0.22951548
-0.0066238634
-0.27519213
-0.0080741082
-0.32991965
-0.0098302425
-0.39554752
-0.011962329
-0.47412987
-0.014583195
-0.5681593
-0.017825661
-0.68047851
-0.021880131
-0.81439463
-0.027002099
-0.97369159
-0.033498645
-1.1628517
-0.041693332
-1.3872152
-0.051904453
-1.6533465
-0.064427558
-1.9694148
-0.079554531
-2.3455498
-0.097610903
-2.7938948
-0.11888469
-3.3297335
-0.14385678
-3.9712355
-0.17284807
-4.7405252
-0.20665223
-5.666354
-0.24642083
-6.7792225
-0.29254981
-8.1162898
-0.34316599
-9.7227818
-0.40039889
-11.64412
-0.46377158
-13.973899
-0.53679184
-16.804718
-0.61730668
-20.240021
-0.70877894
-24.404805
-0.80356119
-29.467638
-0.89570175
-35.634235
-0.97549132
-43.17072
-1.0277872
-52.413901
-1.0290825
-63.793976
-0.94293746
-77.865986
-95.353552
1.3033697e-05
-0.0078888973
-3.5601275e-06
-0.0110879
-1.5022609e-05
-0.014629751
-1.7888212e-05
-0.018978028
3.154927e-06
-0.024511261
-5.6753868e-05
-0.031134927
-0.00021884311
-0.037294277
-0.00041376295
-0.0449296
-0.00064417632
-0.053609477
-0.00092468911
-0.064408222
-0.0012540198
-0.077041543
-0.0016556506
-0.092427799
-0.002128161
-0.11068934
-0.0027017669
-0.13272128
-0.0033779534
-0.1590375
-0.0041869768
-0.19067847
-0.0051453875
-0.22857193
-0.0063019752
-0.27405384
-0.0076922814
-0.32855217
-0.0093801564
-0.39388803
-0.011437582
-0.47210797
-0.013976573
-0.56566505
-0.017146825
-0.67736532
-0.02113812
-0.81047682
-0.026205582
-0.96871992
-0.032668337
-1.1565149
-0.040848672
-1.379197
-0.051057271
-1.6433447
-0.063576939
-1.9571594
-0.078691709
-2.3307729
-0.096722446
-2.7763064
-0.11794772
-3.3090681
-0.14283907
-3.9470921
-0.1716859
-4.712656
-0.20536702
-5.6338722
-0.24517458
-6.7406988
-0.29109107
-8.0712934
-0.34166039
-9.667998
-0.39912827
-11.580844
-0.46213173
-13.905062
-0.53493477
-16.728411
-0.61782764
-20.156808
-0.71064682
-24.314406
-0.80770604
-29.372972
-0.90345723
-35.540457
-0.98884724
-43.086603
-1.0497433
-52.35359
-1.0639351
-63.779828
-0.99707858
-77.932329
-95.552694
1.9312583e-05
-0.0078716164
6.5998071e-06
-0.011074604
3.095847e-07
-0.014623564
3.6986514e-06
-0.018981804
3.1715208e-05
-0.024540304
-3.403955e-05
-0.031070172
-0.00018894247
-0.037140803
-0.00037603394
-0.044744419
-0.0005958074
-0.053392223
-0.00086478899
-0.064142409
-0.0011793664
-0.076731019
-0.0015639647
-0.092048199
-0.0020153948
-0.11024398
-0.0025627921
-0.13218137
-0.0032040422
-0.15840521
-0.0039746063
-0.18991909
-0.0048935851
-0.22766662
-0.006004381
-0.27295984
-0.0073410514
-0.32723626
-0.0089687097
-0.39228591
-0.010959744
-0.47014858
-0.013426885
-0.56323746
-0.016530446
-0.67431193
-0.02047511
-0.80659647
-0.025515177
-0.9637636
-0.031970413
-1.1501698
-0.040164724
-1.3711443
-0.050396642
-1.6332949
-0.06293841
-1.9448528
-0.078064853
-2.3159532
-0.096094032
-2.7586907
-0.11729698
-3.2884071
-0.14213943
-3.9229946
-0.17091405
-4.6847889
-0.20448427
-5.6013288
-0.24437694
-6.7019279
-0.29011473
-8.0258473
-0.34106144
-9.6128215
-0.39874629
-11.517715
-0.4622616
-13.835585
-0.53375311
-16.652606
-0.61967525
-20.071556
-0.71405208
-24.222448
-0.81367607
-29.275755
-0.91337042
-35.442735
-1.0047553
-42.996479
-1.0746555
-52.284277
-1.1022918
-63.75224
-1.0552421
-77.978864
-95.722668
2.4077092e-05
-0.007855985
1.3732013e-05
-0.011063943
1.1908181e-05
-0.014621891
2.1715783e-05
-0.01899182
5.3864029e-05
-0.024573633
-1.9931037e-05
-0.030997613
-0.00016816203
-0.036994014
-0.00034781515
-0.044566614
-0.00055786264
-0.053184579
-0.00081570993
-0.0638876
-0.0011158978
-0.07643458
-0.0014835903
-0.091685072
-0.001914022
-0.10981926
-0.0024345193
-0.13166766
-0.0030454002
-0.15780283
-0.0037843742
-0.1891901
-0.0046667907
-0.22679678
-0.0057339398
-0.27190839
-0.0070218559
-0.32596798
-0.0085947413
-0.39073742
-0.010528154
-0.46824564
-0.012938695
-0.56086515
-0.015986718
-0.67131251
-0.01989998
-0.80274542
-0.024940886
-0.95880362
-0.031416458
-1.1437998
-0.039651529
-1.3630444
-0.049934713
-1.6231843
-0.062522503
-1.9324875
-0.077685707
-2.3010806
-0.095738165
-2.7410346
-0.11694719
-3.2677284
-0.14177367
-3.8989055
-0.1705697
-4.6568313
-0.20424261
-5.5685375
-0.24404662
-6.6630386
-0.28963707
-7.9798671
-0.3407763
-9.5574115
-0.39873591
-11.454784
-0.46309236
-13.765853
-0.53442284
-16.575334
-0.62284787
-19.984157
-0.71903852
-24.128672
-0.82154462
-29.175676
-0.92552998
-35.340714
-1.0233003
-42.899955
-1.1026665
-52.205498
-1.1442743
-63.710683
-1.1177022
-78.004919
-95.862832
2.9642103e-05
-0.0078427045
2.2801249e-05
-0.011056576
2.6038584e-05
-0.014625288
4.3199825e-05
-0.019009341
7.8794031e-05
-0.024610225
-3.0491602e-06
-0.030916779
-0.00014450899
-0.036853835
-0.0003167961
-0.044396119
-0.00051712934
-0.052986479
-0.00076393354
-0.063643608
-0.0010502599
-0.076151788
-0.001402069
-0.091337595
-0.0018118479
-0.10941471
-0.0023081661
-0.13117776
-0.0028936041
-0.15722505
-0.0036031628
-0.18849012
-0.004450538
-0.2259612
-0.0054775637
-0.27089589
-0.0067217327
-0.32474182
-0.0082468895
-0.38923446
-0.010131721
-0.46638834
-0.012497174
-0.55853397
-0.015509669
-0.66834338
-0.019408878
-0.79890132
-0.024471314
-0.95381277
-0.030997746
-1.1373662
-0.039302803
-1.3548581
-0.049662595
-1.612976
-0.062322365
-1.9200242
-0.077546288
-2.2861174
-0.095646005
-2.7232998
-0.11688624
-3.2469869
-0.14173061
-3.8747567
-0.17060622
-4.6286924
-0.20440523
-5.535437
-0.24420217
-6.6238568
-0.28968386
-7.9333108
-0.34094954
-9.5017921
-0.39919682
-11.391942
-0.46438763
-13.695739
-0.53738324
-16.496496
-0.62721173
-19.895373
-0.72565877
-24.03264
-0.83136822
-29.072428
-0.93999934
-35.234032
-1.044582
-42.796599
-1.1339344
-52.11673
-1.1900349
-63.654637
-1.1844896
-78.009945
-95.972425
3.4173991e-05
-0.007831336
2.9735652e-05
-0.011051961
3.733558e-05
-0.014633122
6.2057925e-05
-0.019034374
9.8469527e-05
-0.024647777
7.8287127e-06
-0.030827218
-0.00012684928
-0.036720364
-0.00029181728
-0.04423283
-0.0004825386
-0.052797905
-0.00071879948
-0.063410056
-0.00099208977
-0.075881812
-0.0013293795
-0.091004325
-0.0017209409
-0.10902814
-0.0021964777
-0.13070817
-0.0027585944
-0.15667037
-0.003439869
-0.18781759
-0.0042553036
-0.22515677
-0.0052464485
-0.26991848
-0.006451202
-0.32355424
-0.0079324364
-0.38777462
-0.0097735895
-0.46457386
-0.01210657
-0.55623444
-0.01510767
-0.66538459
-0.019014998
-0.79504787
-0.024120824
-0.94877651
-0.030729698
-1.1308472
-0.039131109
-1.3465703
-0.049593549
-1.6026579
-0.062349375
-1.907454
-0.077655642
-2.2710569
-0.095824963
-2.7054784
-0.11712675
-3.226163
-0.14201922
-3.8505233
-0.17100948
-4.6003555
-0.20499532
-5.5019919
-0.24486793
-6.5842772
-0.29029541
-7.8861359
-0.34170825
-9.44586
-0.4003857
-11.328972
-0.4668526
-13.624906
-0.5416094
-16.416431
-0.63296213
-19.806282
-0.73401554
-23.934217
-0.84322348
-28.965699
-0.9568654
-35.122314
-1.0686973
-42.685971
-1.168526
-52.017484
-1.239756
-63.583465
-1.25597
-77.993211
-96.050745
3.8873361e-05
-0.0078219542
3.7170938e-05
-0.011050021
4.9232408e-05
-0.014645427
8.2343244e-05
-0.019067934
0.00011841997
-0.024684864
2.4377258e-05
-0.030734058
-0.00010346419
-0.036593736
-0.00026152199
-0.044076413
-0.00044352949
-0.052617915
-0.00067063958
-0.063185474
-0.0009326689
-0.075622914
-0.0012562318
-0.090684585
-0.0016314172
-0.10865759
-0.0020886846
-0.13025658
-0.0026291031
-0.15613678
-0.0032848409
-0.18717032
-0.0040714306
-0.22438062
-0.0050306842
-0.26897206
-0.0061987293
-0.32240211
-0.0076376988
-0.38635533
-0.0094439535
-0.46279198
-0.01175719
-0.55395155
-0.014766894
-0.66241301
-0.018712965
-0.79115004
-0.023892105
-0.94365944
-0.030607398
-1.1242117
-0.039132014
-1.3381454
-0.04971773
-1.5921987
-0.062588512
-1.8947461
-0.078000726
-2.2558632
-0.096274828
-2.6875187
-0.11767985
-3.2051895
-0.14265647
-3.8261265
-0.17176347
-4.5717851
-0.20603556
-5.4680935
-0.24605801
-6.5442018
-0.29153291
-7.8384096
-0.34322092
-9.3894309
-0.40232327
-11.265737
-0.47041796
-13.553248
-0.54713022
-16.335661
-0.64033617
-19.71568
-0.74415829
-23.833135
-0.8571698
-28.855154
-0.97620907
-35.005163
-1.0957464
-42.567614
-1.2065904
-51.907218
-1.2935289
-63.496588
-1.3322044
-77.954015
-96.097
4.2955368e-05
-0.0078142699
4.3469969e-05
-0.011050432
5.9398845e-05
-0.014661631
0.00010134575
-0.019110254
0.00013420261
-0.024718806
4.5233792e-05
-0.030646092
-7.7860708e-05
-0.036471803
-0.00023098478
-0.043924815
-0.00040611105
-0.052444687
-0.00062556939
-0.062968421
-0.0008776399
-0.075373789
-0.0011883802
-0.090377426
-0.0015483425
-0.10830208
-0.0019885276
-0.12982171
-0.0025092794
-0.15562265
-0.0031416199
-0.18654582
-0.0039023575
-0.22362976
-0.0048313205
-0.26805535
-0.0059649701
-0.32128378
-0.0073745381
-0.38496484
-0.0091627122
-0.46102761
-0.011472654
-0.55167141
-0.01450179
-0.65942138
-0.018509773
-0.78718951
-0.023789966
-0.93844017
-0.030635247
-1.1174435
-0.039308128
-1.3295684
-0.050035131
-1.5815916
-0.063040712
-1.8818929
-0.078592032
-2.2405164
-0.097011966
-2.6693941
-0.11855722
-3.1840427
-0.1436697
-3.8015281
-0.17297598
-4.5429033
-0.20753848
-5.4337902
-0.24778239
-6.5036619
-0.29341123
-7.7901737
-0.34568671
-9.3322364
-0.4051753
-11.202092
-0.47494979
-13.480572
-0.55399798
-16.253555
-0.64930316
-19.623124
-0.756129
-23.729083
-0.87328219
-28.740436
-0.99811767
-34.882177
-1.1258386
-42.441048
-1.2482554
-51.785376
-1.351567
-63.393341
-1.4134361
-77.891627
-96.110308
4.6481528e-05
-0.0078077309
4.8957094e-05
-0.011052715
6.8176913e-05
-0.014681104
0.00011884692
-0.019161324
0.00014605347
-0.024747017
5.732919e-05
-0.030558158
-6.1336873e-05
-0.036354224
-0.00020950076
-0.043778136
-0.0003775834
-0.052278399
-0.00058920162
-0.062759072
-0.00083086923
-0.075134925
-0.0011302135
-0.090081501
-0.0014768078
-0.10795965
-0.0019011368
-0.12940247
-0.0024036995
-0.15512629
-0.0030153769
-0.18594178
-0.0037540241
-0.22290052
-0.0046540906
-0.26716683
-0.0057603409
-0.32019185
-0.0071540715
-0.38358883
-0.0089379357
-0.45926567
-0.011260422
-0.54937622
-0.014329312
-0.65638652
-0.018416514
-0.78314517
-0.023817552
-0.93309388
-0.030818142
-1.1105112
-0.03966074
-1.3208099
-0.050554828
-1.5708018
-0.063726363
-1.8688547
-0.079449326
-2.2249748
-0.098044772
-2.6510561
-0.11976306
-3.1626664
-0.14506271
-3.7766414
-0.17465512
-4.5136196
-0.20952083
-5.3990429
-0.25006291
-6.4626028
-0.29596903
-7.7413875
-0.34926417
-9.2741033
-0.40938592
-11.137679
-0.48015866
-13.406937
-0.56220977
-16.169837
-0.65988347
-19.528246
-0.76998713
-23.621747
-0.89162523
-28.621191
-1.0226881
-34.752923
-1.1590892
-42.305778
-1.2936579
-51.651379
-1.4140226
-63.273045
-1.499848
-77.805283
-96.089783
5.1110661e-05
-0.0078038322
5.6351297e-05
-0.011057958
7.9479637e-05
-0.014704562
0.00014014908
-0.019222438
0.00016163855
-0.024769482
6.9431708e-05
-0.03046683
-4.418655e-05
-0.036241657
-0.00018728585
-0.043636477
-0.00034869097
-0.052118701
-0.00055337119
-0.06255658
-0.00078528784
-0.074905634
-0.001073352
-0.089796682
-0.0014078044
-0.1076292
-0.0018176243
-0.12899754
-0.0023043587
-0.15464557
-0.0028975334
-0.18535582
-0.0036159916
-0.22219106
-0.0044939661
-0.26629996
-0.0055834736
-0.31911624
-0.0069689887
-0.38222058
-0.0087579335
-0.45749829
-0.011109681
-0.54705138
-0.014242603
-0.65328732
-0.01843075
-0.77899942
-0.023978632
-0.92760005
-0.031156962
-1.1033997
-0.040185545
-1.3118621
-0.051279778
-1.5598068
-0.064659912
-1.8556002
-0.080605988
-2.2091996
-0.099364829
-2.6325324
-0.12129248
-3.1410432
-0.14682528
-3.7514426
-0.17674856
-4.4839178
-0.21197135
-5.3638183
-0.25291776
-6.4209831
-0.29935111
-7.6918016
-0.35395012
-9.2150444
-0.41511217
-11.07214
-0.48613661
-13.332565
-0.57181982
-16.083858
-0.6721029
-19.430745
-0.78578447
-23.510803
-0.91228309
-28.497039
-1.0500085
-34.616964
-1.1956077
-42.161284
-1.3429379
-51.504617
-1.481048
-63.135009
-1.591684
-77.694131
-96.03445
5.3817829e-05
-0.0078007366
6.043916e-05
-0.011064624
8.5717438e-05
-0.014730224
0.00015444803
-0.019291865
0.00016701847
-0.024782905
7.446978e-05
-0.030375097
-3.4929902e-05
-0.036133234
-0.00017372711
-0.043499002
-0.00032907856
-0.051964979
-0.00052759348
-0.062360066
-0.00075118414
-0.074684596
-0.0010291092
-0.089521794
-0.0013525788
-0.10730961
-0.0017494942
-0.12860527
-0.002222365
-0.15417847
-0.0028006078
-0.18478459
-0.0034994606
-0.22150084
-0.0043609921
-0.26544899
-0.0054432631
-0.31804705
-0.0068291159
-0.38085087
-0.0086328129
-0.45571461
-0.011027182
-0.54468181
-0.01424652
-0.65009877
-0.018568274
-0.77471617
-0.024291757
-0.92192545
-0.031665782
-1.0960852
-0.040907407
-1.302691
-0.052227308
-1.5485732
-0.065874589
-1.8420637
-0.082026341
-2.1931957
-0.10098626
-2.6137699
-0.12316083
-3.1191156
-0.14897536
-3.7258575
-0.17927739
-4.4537377
-0.21491807
-5.3280409
-0.25636101
-6.3787847
-0.30406329
-7.6408909
-0.3594109
-9.1556892
-0.4222151
-11.005155
-0.49332107
-13.257295
-0.58288353
-15.994587
-0.68600658
-19.330343
-0.8035908
-23.395916
-0.93533482
-28.367594
-1.080179
-34.473843
-1.2355187
-42.007025
-1.3962415
-51.344458
-1.5528868
-62.978442
-1.6891573
-77.557347
-95.943363
5.8267893e-05
-0.0078002157
6.7810183e-05
-0.011074334
9.6925432e-05
-0.014759708
0.00017507973
-0.019370734
0.00017870432
-0.02478746
8.9000236e-05
-0.030286393
-1.5976803e-05
-0.036029164
-0.00015077048
-0.0433656
-0.00030029341
-0.051816949
-0.00049235069
-0.062170029
-0.00070849965
-0.074470842
-0.00097870168
-0.089254572
-0.0012928618
-0.10699917
-0.0016789118
-0.12822372
-0.0021401877
-0.15372276
-0.0027050063
-0.18422648
-0.0033900116
-0.22082417
-0.0042412863
-0.26460797
-0.0053227726
-0.31697831
-0.0067157146
-0.37947378
-0.0085443041
-0.45390576
-0.010999435
-0.54225131
-0.014329599
-0.6467992
-0.018818148
-0.77026595
-0.024738413
-0.9160536
-0.032330507
-1.088551