/*--------------------------------*- C++ -*----------------------------------*\
  =========                 |
  \\      /  F ield         | OpenFOAM: The Open Source CFD Toolbox
   \\    /   O peration     | Website:  https://openfoam.org
    \\  /    A nd           | Version:  8
     \\/     M anipulation  |
\*---------------------------------------------------------------------------*/
FoamFile
{
    version     2.0;
    format      ascii;
    class       pointVectorField;
    location    "0.0199971";
    object      pointDisplacement;
}
// * * * * * * * * * * * * * * * * * * * * * * * * * * * * * * * * * * * * * //

dimensions      [0 1 0 0 0 0 0];

internalField   nonuniform List<vector> 
40800
(
(-0.0020010866 0 -0.0016123497)
(-0.0019960192 0 -0.0013336827)
(-0.0019957649 0 -0.0013352769)
(-0.0020008976 0 -0.0016199858)
(-0.0019957371 0 -0.0013355925)
(-0.0020008729 0 -0.0016205236)
(-0.0019956799 0 -0.0013360844)
(-0.0020008181 0 -0.0016211476)
(-0.0019955785 0 -0.0013367061)
(-0.0020007204 0 -0.0016219259)
(-0.001995414 0 -0.001337495)
(-0.0020005612 0 -0.0016228984)
(-0.0019951603 0 -0.0013385011)
(-0.002000315 0 -0.0016241209)
(-0.0019947816 0 -0.001339792)
(-0.0019999466 0 -0.0016256679)
(-0.0019942291 0 -0.0013414593)
(-0.0019994082 0 -0.001627639)
(-0.0019934366 0 -0.0013436285)
(-0.0019986346 0 -0.0016301688)
(-0.0019923151 0 -0.0013464717)
(-0.0019975384 0 -0.0016334393)
(-0.0019907455 0 -0.0013502262)
(-0.0019960023 0 -0.0016376982)
(-0.00198857 0 -0.0013552195)
(-0.0019938709 0 -0.0016432823)
(-0.0019855812 0 -0.0013619029)
(-0.0019909394 0 -0.0016506499)
(-0.0019815084 0 -0.0013708992)
(-0.0019869409 0 -0.0016604273)
(-0.0019760039 0 -0.0013830635)
(-0.0019815314 0 -0.0016734671)
(-0.0019686257 0 -0.0013995638)
(-0.0019742732 0 -0.001690926)
(-0.0019588223 0 -0.0014219923)
(-0.0019646191 0 -0.0017143759)
(-0.0019459207 0 -0.0014524914)
(-0.0019518997 0 -0.0017459174)
(-0.0019291223 0 -0.0014939022)
(-0.0019353171 0 -0.001788325)
(-0.0019075142 0 -0.0015499294)
(-0.0019139552 0 -0.0018452105)
(-0.0018801009 0 -0.001625283)
(-0.0018868077 0 -0.0019211498)
(-0.0018458652 0 -0.0017257445)
(-0.001852837 0 -0.0020217483)
(-0.0018038711 0 -0.0018580508)
(-0.0018110747 0 -0.0021535272)
(-0.0017533859 0 -0.0020295266)
(-0.001760742 0 -0.0023235712)
(-0.0016940376 0 -0.0022472548)
(-0.001701413 0 -0.0025387108)
(-0.0016259243 0 -0.0025169806)
(-0.0016331292 0 -0.0028044663)
(-0.0015497237 0 -0.0028413944)
(-0.0015565329 0 -0.0031232823)
(-0.0014666502 0 -0.0032188368)
(-0.0014728272 0 -0.0034933161)
(-0.0013784221 0 -0.0036418508)
(-0.001383761 0 -0.0039069487)
(-0.0012870897 0 -0.0040970108)
(-0.0012914571 0 -0.0043506067)
(-0.0011948213 0 -0.0045659899)
(-0.001198181 0 -0.0048058788)
(-0.001103703 0 -0.0050278453)
(-0.001106114 0 -0.0052519083)
(-0.0010155612 0 -0.0054617028)
(-0.001017158 0 -0.0056681039)
(-0.00093180237 0 -0.0058495385)
(-0.00093275001 0 -0.0060370092)
(-0.00085344098 0 -0.0061778893)
(-0.00085391871 0 -0.0063458338)
(-0.00078103885 0 -0.0064383)
(-0.00078120468 0 -0.0065868678)
(-0.00071466288 0 -0.0066270494)
(-0.00071464562 0 -0.0067569512)
(-0.00065405233 0 -0.0067438015)
(-0.00065393159 0 -0.0068563037)
(-0.00059874642 0 -0.006789587)
(-0.00059859114 0 -0.0068861321)
(-0.00054823195 0 -0.0067641221)
(-0.00054808872 0 -0.0068462324)
(-0.00050144232 0 -0.0066649638)
(-0.00050131131 0 -0.0067339124)
(-0.00045747629 0 -0.0064863012)
(-0.00045735252 0 -0.0065431208)
(-0.00041558884 0 -0.0062234549)
(-0.00041548841 0 -0.0062693074)
(-0.00037498967 0 -0.0058707349)
(-0.00037495957 0 -0.0059072116)
(-0.00033352428 0 -0.0054070976)
(-0.00033351192 0 -0.0054346967)
(-0.00028923596 0 -0.0048124226)
(-0.00028928874 0 -0.0048329022)
(-0.00023867342 0 -0.0040482534)
(-0.00023870652 0 -0.0040622349)
(-0.00017780239 0 -0.0030531215)
(-0.00017785136 0 -0.0030619971)
(-0.00010223538 0 -0.0017512186)
(-0.00010247205 0 -0.0017578377)
(0 0 0)
(0 0 0)
(-0.0019899905 0 -0.0010610324)
(-0.0019897413 0 -0.0010625808)
(-0.0019897114 0 -0.0010627747)
(-0.0019896493 0 -0.0010630241)
(-0.0019895415 0 -0.001063354)
(-0.0019893687 0 -0.0010637956)
(-0.0019891042 0 -0.0010643908)
(-0.0019887114 0 -0.0010651984)
(-0.0019881406 0 -0.0010663)
(-0.0019873243 0 -0.0010678094)
(-0.0019861719 0 -0.0010698856)
(-0.0019845626 0 -0.0010727502)
(-0.001982336 0 -0.001076713)
(-0.0019792819 0 -0.0010822065)
(-0.0019751263 0 -0.0010898338)
(-0.0019695176 0 -0.001100432)
(-0.0019620097 0 -0.0011151577)
(-0.0019520472 0 -0.0011355979)
(-0.0019389537 0 -0.0011639055)
(-0.0019219299 0 -0.0012029562)
(-0.0019000662 0 -0.0012565202)
(-0.0018723769 0 -0.0013294156)
(-0.0018378652 0 -0.0014275808)
(-0.0017956262 0 -0.0015579647)
(-0.0017449731 0 -0.0017281429)
(-0.0016855864 0 -0.0019454947)
(-0.0016176216 0 -0.0022160592)
(-0.0015417925 0 -0.0025428859)
(-0.0014593282 0 -0.002924624)
(-0.0013719226 0 -0.0033541064)
(-0.0012815568 0 -0.0038181971)
(-0.0011903097 0 -0.0042987477)
(-0.0011001742 0 -0.0047748217)
(-0.0010129042 0 -0.0052252996)
(-0.0009298672 0 -0.0056316499)
(-0.00085206166 0 -0.0059797019)
(-0.00078005515 0 -0.0062602549)
(-0.00071394758 0 -0.006468888)
(-0.00065351176 0 -0.0066046643)
(-0.0005983122 0 -0.0066682247)
(-0.00054783996 0 -0.0066591814)
(-0.00050108502 0 -0.0065751675)
(-0.00045715499 0 -0.0064106704)
(-0.00041528167 0 -0.006160811)
(-0.00037464176 0 -0.0058194475)
(-0.00033316057 0 -0.00536635)
(-0.00028883985 0 -0.0047807886)
(-0.00023828711 0 -0.0040245714)
(-0.00017746364 0 -0.0030367005)
(-0.00010174896 0 -0.0017392997)
(0 0 0)
(-0.001983022 0 -0.00079427394)
(-0.0019827784 0 -0.00079570763)
(-0.0019827431 0 -0.00079571264)
(-0.0019826742 0 -0.00079573703)
(-0.0019825578 0 -0.00079580004)
(-0.0019823741 0 -0.00079592424)
(-0.0019820957 0 -0.00079614245)
(-0.0019816852 0 -0.00079650236)
(-0.0019810918 0 -0.00079707318)
(-0.0019802466 0 -0.00079795469)
(-0.0019790573 0 -0.00079929049)
(-0.0019774008 0 -0.00080128599)
(-0.0019751142 0 -0.00080423392)
(-0.001971984 0 -0.00080854947)
(-0.0019677325 0 -0.00081481894)
(-0.0019620038 0 -0.00082386491)
(-0.0019543475 0 -0.00083683388)
(-0.0019442036 0 -0.00085531114)
(-0.0019308927 0 -0.00088146232)
(-0.0019136148 0 -0.00091819939)
(-0.0018914643 0 -0.00096936166)
(-0.0018634668 0 -0.0010398787)
(-0.0018286478 0 -0.0011358483)
(-0.001786137 0 -0.0012644274)
(-0.0017352967 0 -0.0014334342)
(-0.0016758646 0 -0.0016505194)
(-0.0016080558 0 -0.0019219904)
(-0.0015326236 0 -0.002251208)
(-0.001450813 0 -0.002637084)
(-0.0013642916 0 -0.003072705)
(-0.0012749702 0 -0.0035452003)
(-0.0011848348 0 -0.004036609)
(-0.0010957816 0 -0.0045260383)
(-0.0010094867 0 -0.0049921896)
(-0.00092727316 0 -0.0054161014)
(-0.0008501193 0 -0.0057829699)
(-0.0007785961 0 -0.0060828988)
(-0.00071283356 0 -0.0063107917)
(-0.00065263727 0 -0.0064651209)
(-0.0005975985 0 -0.0065461228)
(-0.00054721592 0 -0.0065532716)
(-0.00050053225 0 -0.0064842455)
(-0.00045666653 0 -0.0063337792)
(-0.00041483248 0 -0.0060968233)
(-0.00037417746 0 -0.0057668256)
(-0.00033269828 0 -0.0053242643)
(-0.0002883635 0 -0.0047478958)
(-0.00023783448 0 -0.0039997636)
(-0.00017707061 0 -0.0030193338)
(-0.00010125208 0 -0.0017270599)
(0 0 0)
(-0.0019751455 0 -0.00053328455)
(-0.0019749064 0 -0.00053460472)
(-0.0019748645 0 -0.00053442446)
(-0.0019747872 0 -0.00053422852)
(-0.0019746601 0 -0.00053402872)
(-0.0019744628 0 -0.00053383962)
(-0.0019741673 0 -0.00053368482)
(-0.0019737351 0 -0.00053360166)
(-0.0019731142 0 -0.00053364763)
(-0.0019722343 0 -0.00053390928)
(-0.0019710011 0 -0.00053451533)
(-0.0019692892 0 -0.00053565493)
(-0.0019669329 0 -0.00053760353)
(-0.0019637148 0 -0.00054075845)
(-0.0019593535 0 -0.00054568909)
(-0.0019534883 0 -0.00055320366)
(-0.0019456638 0 -0.0005644399)
(-0.0019353156 0 -0.00058098355)
(-0.0019217607 0 -0.00060501614)
(-0.0019041989 0 -0.00063949013)
(-0.0018817292 0 -0.00068831916)
(-0.0018533904 0 -0.00075654907)
(-0.0018182323 0 -0.00085043992)
(-0.0017754228 0 -0.00097735397)
(-0.0017243766 0 -0.0011453418)
(-0.0016648932 0 -0.0013623012)
(-0.0015972497 0 -0.0016347799)
(-0.001522242 0 -0.0019664003)
(-0.0014411307 0 -0.0023562906)
(-0.0013555554 0 -0.0027977574)
(-0.0012673547 0 -0.0032781705)
(-0.0011784183 0 -0.0037797632)
(-0.0010905424 0 -0.0042817202)
(-0.0010053214 0 -0.0047626255)
(-0.00092402856 0 -0.0052031605)
(-0.00084761851 0 -0.0055879614)
(-0.00077666356 0 -0.0059064871)
(-0.00071132073 0 -0.0061529946)
(-0.00065142781 0 -0.0063253769)
(-0.00059660359 0 -0.0064234562)
(-0.00054635775 0 -0.0064465388)
(-0.00049978206 0 -0.0063923177)
(-0.00045600952 0 -0.0062557283)
(-0.00041424007 0 -0.0060315732)
(-0.00037359551 0 -0.0057129301)
(-0.0003321366 0 -0.0052808895)
(-0.00028780616 0 -0.0047137793)
(-0.00023731517 0 -0.0039738542)
(-0.00017662389 0 -0.0030010453)
(-0.00010074362 0 -0.0017144947)
(0 0 0)
(-0.0019663912 0 -0.00027794368)
(-0.0019661537 0 -0.00027915053)
(-0.0019661035 0 -0.00027878444)
(-0.0019660157 0 -0.00027836765)
(-0.0019658755 0 -0.00027790549)
(-0.0019656619 0 -0.00027740482)
(-0.0019653458 0 -0.00027688034)
(-0.0019648879 0 -0.0002763591)
(-0.0019642347 0 -0.0002758867)
(-0.0019633142 0 -0.00027553637)
(-0.0019620302 0 -0.000275422)
(-0.0019602545 0 -0.00027571661)
(-0.0019578182 0 -0.00027667851)
(-0.0019545002 0 -0.00027868767)
(-0.0019500146 0 -0.00028229674)
(-0.0019439956 0 -0.00028830002)
(-0.0019359826 0 -0.00029782732)
(-0.0019254062 0 -0.00031246681)
(-0.0019115802 0 -0.00033441968)
(-0.0018937042 0 -0.00036668374)
(-0.0018708829 0 -0.00041325283)
(-0.0018421697 0 -0.00047929496)
(-0.0018066414 0 -0.00057123651)
(-0.0017635075 0 -0.00069664229)
(-0.0017122387 0 -0.0008637845)
(-0.0016527004 0 -0.0010807835)
(-0.0015852343 0 -0.001354397)
(-0.0015106804 0 -0.0016884607)
(-0.0014303153 0 -0.0020822738)
(-0.0013457475 0 -0.0025293298)
(-0.0012587413 0 -0.003017215)
(-0.0011710869 0 -0.0035283598)
(-0.0010844783 0 -0.0040420567)
(-0.0010004241 0 -0.0045368286)
(-0.000920144 0 -0.0049930688)
(-0.0008445656 0 -0.0053949238)
(-0.00077426041 0 -0.00573126)
(-0.00070940975 0 -0.0059957193)
(-0.00064988261 0 -0.0061856302)
(-0.00059532605 0 -0.0063003944)
(-0.00054526339 0 -0.0063391246)
(-0.00049883256 0 -0.0062995004)
(-0.00045518235 0 -0.0061766147)
(-0.00041350306 0 -0.0059651398)
(-0.00037289433 0 -0.0056578187)
(-0.00033147446 0 -0.005236272)
(-0.00028716692 0 -0.0046784711)
(-0.00023672862 0 -0.0039468652)
(-0.00017612372 0 -0.0029818548)
(-0.00010022251 0 -0.0017016003)
(0 0 0)
(-0.0019567811 0 -2.8134151e-05)
(-0.0019565455 0 -2.9228404e-05)
(-0.0019564854 0 -2.8676711e-05)
(-0.0019563853 0 -2.8039338e-05)
(-0.0019562297 0 -2.7315354e-05)
(-0.0019559969 0 -2.6504078e-05)
(-0.001955657 0 -2.5611546e-05)
(-0.0019551694 0 -2.4654711e-05)
(-0.001954479 0 -2.3667633e-05)
(-0.0019535122 0 -2.2710387e-05)
(-0.0019521701 0 -2.1882155e-05)
(-0.001950322 0 -2.1339969e-05)
(-0.0019477953 0 -2.1325181e-05)
(-0.001944365 0 -2.2200587e-05)
(-0.0019397401 0 -2.4502667e-05)
(-0.0019335495 0 -2.9012482e-05)
(-0.0019253269 0 -3.6852946e-05)
(-0.0019144979 0 -4.9616839e-05)
(-0.0019003729 0 -6.9528617e-05)
(-0.0018821518 0 -9.9637372e-05)
(-0.0018589461 0 -0.00014402454)
(-0.0018298257 0 -0.00020798711)
(-0.0017938971 0 -0.00029812195)
(-0.0017504145 0 -0.00042219401)
(-0.0016989088 0 -0.00058868429)
(-0.0016393149 0 -0.00080591128)
(-0.001572041 0 -0.0010808108)
(-0.0014979732 0 -0.0014173834)
(-0.0014184021 0 -0.0018150565)
(-0.0013349029 0 -0.0022674774)
(-0.0012491626 0 -0.0027624261)
(-0.0011628694 0 -0.0032825307)
(-0.0010776126 0 -0.0038072185)
(-0.00099481259 0 -0.0043150021)
(-0.00091563199 0 -0.0047860516)
(-0.00084096853 0 -0.0052040912)
(-0.00077139107 0 -0.0055574473)
(-0.00070710243 0 -0.0058391814)
(-0.0006480019 0 -0.0060460745)
(-0.00059376503 0 -0.0061771052)
(-0.00054393129 0 -0.0062311704)
(-0.0004976821 0 -0.0062059105)
(-0.00045418364 0 -0.0060965361)
(-0.00041262016 0 -0.0058976024)
(-0.0003720725 0 -0.0056015506)
(-0.00033071078 0 -0.0051904582)
(-0.00028644481 0 -0.0046420041)
(-0.00023607437 0 -0.0039188199)
(-0.00017557056 0 -0.0029617853)
(-9.9687847e-05 0 -0.0016883749)
(0 0 0)
(-0.0019463411 0 0.00021625832)
(-0.0019461072 0 0.00021527544)
(-0.0019460355 0 0.00021601091)
(-0.0019459212 0 0.00021686642)
(-0.0019457481 0 0.00021784959)
(-0.0019454934 0 0.00021896904)
(-0.0019451264 0 0.0002202277)
(-0.0019446049 0 0.00022161863)
(-0.0019438725 0 0.00022311907)
(-0.0019428532 0 0.00022468163)
(-0.0019414458 0 0.00022622125)
(-0.0019395164 0 0.00022759622)
(-0.0019368887 0 0.00022858159)
(-0.0019333332 0 0.00022883132)
(-0.0019285535 0 0.00022782477)
(-0.0019221728 0 0.00022479351)
(-0.0019137189 0 0.00021862065)
(-0.0019026119 0 0.00020770665)
(-0.0018881592 0 0.00018979869)
(-0.0018695618 0 0.00016178888)
(-0.001845939 0 0.00011950004)
(-0.0018163792 0 5.7499326e-05)
(-0.0017800212 0 -3.098528e-05)
(-0.0017361679 0 -0.00015391608)
(-0.0016844135 0 -0.00031996804)
(-0.0016247663 0 -0.00053763215)
(-0.001557703 0 -0.00081398933)
(-0.0014841559 0 -0.0011531583)
(-0.0014054285 0 -0.0015546524)
(-0.0013230588 0 -0.002012242)
(-0.0012386537 0 -0.002513879)
(-0.0011537968 0 -0.0030423874)
(-0.0010699712 0 -0.0035773535)
(-0.00098850704 0 -0.0040973261)
(-0.00091050713 0 -0.0045823124)
(-0.00083683723 0 -0.0050156782)
(-0.00076806148 0 -0.0053852639)
(-0.00070440191 0 -0.0056835853)
(-0.00064578692 0 -0.0059068956)
(-0.00059192066 0 -0.0060537509)
(-0.00054236065 0 -0.0061228145)
(-0.00049632962 0 -0.0061116632)
(-0.00045301234 0 -0.0060155893)
(-0.00041159033 0 -0.0058290407)
(-0.00037112875 0 -0.0055441856)
(-0.00032984461 0 -0.0051434955)
(-0.00028563898 0 -0.0046044117)
(-0.000235352 0 -0.0038897427)
(-0.00017496466 0 -0.0029408574)
(-9.9138713e-05 0 -0.0016748166)
(0 0 0)
(-0.0019350985 0 0.00045534705)
(-0.0019348653 0 0.00045447579)
(-0.0019347805 0 0.00045539656)
(-0.0019346499 0 0.00045647228)
(-0.0019344566 0 0.00045771682)
(-0.001934177 0 0.00045914592)
(-0.0019337791 0 0.00046077103)
(-0.0019332195 0 0.00046259498)
(-0.0019324398 0 0.0004646063)
(-0.0019313618 0 0.00046677026)
(-0.0019298817 0 0.00046901596)
(-0.0019278619 0 0.00047121729)
(-0.0019251222 0 0.00047316574)
(-0.001921428 0 0.00047453191)
(-0.0019164774 0 0.00047481081)
(-0.0019098874 0 0.00047324622)
(-0.0019011794 0 0.0004687258)
(-0.0018897682 0 0.00045964042)
(-0.0018749584 0 0.00044370214)
(-0.0018559529 0 0.00041773372)
(-0.0018318805 0 0.00037745301)
(-0.0018018497 0 0.00031728567)
(-0.0017650349 0 0.00023027945)
(-0.0017207911 0 0.00010827827)
(-0.0016687794 0 -5.7568328e-05)
(-0.0016090847 0 -0.00027589778)
(-0.0015422538 0 -0.00055390278)
(-0.0014692656 0 -0.00089577415)
(-0.001391433 0 -0.0013010712)
(-0.0013102536 0 -0.0017636579)
(-0.0012272508 0 -0.0022716374)
(-0.0011439015 0 -0.0028080267)
(-0.0010615814 0 -0.0033525928)
(-0.00098152913 0 -0.0038839636)
(-0.00090478561 0 -0.0043820387)
(-0.00083218296 0 -0.0048298864)
(-0.00076427892 0 -0.0052149133)
(-0.00070131246 0 -0.0055291267)
(-0.0006432398 0 -0.0057682736)
(-0.0005897936 0 -0.0059304909)
(-0.00054055113 0 -0.0060141936)
(-0.00049477434 0 -0.0060168734)
(-0.00045166765 0 -0.0059338712)
(-0.00041041267 0 -0.0057595343)
(-0.00037006193 0 -0.0054857844)
(-0.00032887503 0 -0.0050954315)
(-0.00028474857 0 -0.0045657283)
(-0.00023456104 0 -0.0038596573)
(-0.00017430636 0 -0.0029190935)
(-9.8574338e-05 0 -0.0016609256)
(0 0 0)
(-0.0019230805 0 0.00068924205)
(-0.0019228457 0 0.00068848134)
(-0.0019227459 0 0.00068958673)
(-0.0019225969 0 0.00069088193)
(-0.0019223808 0 0.0006923871)
(-0.0019220732 0 0.00069412517)
(-0.0019216408 0 0.00069611586)
(-0.0019210385 0 0.00069837176)
(-0.0019202061 0 0.00070089253)
(-0.0019190629 0 0.00070365596)
(-0.001917502 0 0.00070660524)
(-0.0019153823 0 0.00070962967)
(-0.0019125189 0 0.00071253713)
(-0.0019086721 0 0.00071501481)
(-0.0019035338 0 0.00071657335)
(-0.0018967142 0 0.0007164685)
(-0.0018877281 0 0.00071359194)
(-0.0018759852 0 0.00070632167)
(-0.001860788 0 0.00069232333)
(-0.0018413428 0 0.00066833561)
(-0.0018167888 0 0.00062996337)
(-0.0017862566 0 0.00057148853)
(-0.0017489596 0 0.00048577239)
(-0.0017043083 0 0.00036446934)
(-0.0016520339 0 0.00019857659)
(-0.0015923014 0 -2.0663527e-05)
(-0.001525729 0 -0.00030052213)
(-0.0014533407 0 -0.00064521712)
(-0.001376456 0 -0.0010543156)
(-0.0012965278 0 -0.001521748)
(-0.0012149924 0 -0.0020357497)
(-0.0011332181 0 -0.0025795273)
(-0.0010524725 0 -0.0031330479)
(-0.00097390246 0 -0.0036750569)
(-0.00089848547 0 -0.0041853978)
(-0.00082701873 0 -0.0046468986)
(-0.00076005216 0 -0.0050465838)
(-0.00069783957 0 -0.0053759897)
(-0.00064036368 0 -0.0056303802)
(-0.00058738548 0 -0.0058074786)
(-0.00053850309 0 -0.0059054407)
(-0.00049301609 0 -0.005921654)
(-0.00045014912 0 -0.0058514775)
(-0.00040908659 0 -0.0056891626)
(-0.00036887111 0 -0.0054264079)
(-0.00032780125 0 -0.0050463146)
(-0.00028377281 0 -0.0045259884)
(-0.00023370109 0 -0.0038285895)
(-0.00017359588 0 -0.0028965147)
(-9.7993942e-05 0 -0.0016467023)
(0 0 0)
(-0.0019103081 0 0.00091805062)
(-0.001910071 0 0.00091739974)
(-0.0019099545 0 0.00091868935)
(-0.0019097849 0 0.00092020357)
(-0.0019095437 0 0.00092196862)
(-0.0019092051 0 0.00092401466)
(-0.0019087345 0 0.00092636966)
(-0.0019080851 0 0.00092905587)
(-0.0019071945 0 0.00093208409)
(-0.0019059795 0 0.00093544485)
(-0.0019043298 0 0.00093909546)
(-0.0019021003 0 0.0009429407)
(-0.0018991012 0 0.00094680494)
(-0.0018950871 0 0.00095039211)
(-0.0018897433 0 0.00095322848)
(-0.0018826726 0 0.0009545821)
(-0.0018733832 0 0.00095334889)
(-0.0018612794 0 0.00094789289)
(-0.001845664 0 0.00093581173)
(-0.0018257481 0 0.00091373628)
(-0.0018006816 0 0.00087715836)
(-0.0017696188 0 0.00082022104)
(-0.0017318164 0 0.00073558867)
(-0.0016867437 0 0.00061473037)
(-0.0016342051 0 0.0004485224)
(-0.0015744485 0 0.00022811197)
(-0.0015081647 0 -5.3818965e-05)
(-0.0014364211 0 -0.00040147117)
(-0.0013605394 0 -0.00081438319)
(-0.001281923 0 -0.0012865272)
(-0.0012019182 0 -0.0018062534)
(-0.0011217822 0 -0.0023569536)
(-0.0010426753 0 -0.0029188136)
(-0.000965652 0 -0.0034707315)
(-0.000891626 0 -0.0039925409)
(-0.00082135874 0 -0.0044668834)
(-0.00075539102 0 -0.004880452)
(-0.00069398965 0 -0.0052243492)
(-0.00063716251 0 -0.0054933801)
(-0.00058469841 0 -0.0056848633)
(-0.00053621736 0 -0.0057966865)
(-0.0004910549 0 -0.0058261164)
(-0.00044845649 0 -0.0057685031)
(-0.00040761156 0 -0.0056180049)
(-0.00036755546 0 -0.0053661177)
(-0.0003266225 0 -0.0049961935)
(-0.00028271099 0 -0.0044852283)
(-0.00023277182 0 -0.0037965658)
(-0.00017283347 0 -0.002873143)
(-9.739681e-05 0 -0.0016321475)
(0 0 0)
(-0.0018968022 0 0.0011418777)
(-0.0018965641 0 0.0011413358)
(-0.0018964293 0 0.0011428084)
(-0.0018962372 0 0.0011445399)
(-0.0018959682 0 0.0011465627)
(-0.0018955956 0 0.0011489145)
(-0.0018950831 0 0.0011516319)
(-0.0018943821 0 0.0011547469)
(-0.0018934278 0 0.0011582816)
(-0.001892134 0 0.0011622392)
(-0.0018903871 0 0.001166591)
(-0.0018880375 0 0.0011712572)
(-0.0018848901 0 0.0011760786)
(-0.0018806933 0 0.0011807759)
(-0.0018751251 0 0.0011848918)
(-0.0018677806 0 0.0011877081)
(-0.0018581604 0 0.0011881283)
(-0.0018456641 0 0.0011845112)
(-0.0018295996 0 0.0011743332)
(-0.0018091843 0 0.001154079)
(-0.0017835759 0 0.0011191584)
(-0.0017519548 0 0.0010635899)
(-0.0017136266 0 0.00097981672)
(-0.0016681226 0 0.00085912594)
(-0.001615322 0 0.00069231802)
(-0.0015555596 0 0.00047046554)
(-0.001489599 0 0.00018623352)
(-0.0014185482 0 -0.00016451767)
(-0.0013437263 0 -0.00058126427)
(-0.0012664827 0 -0.001057999)
(-0.0011880692 0 -0.0015831713)
(-0.0011096311 0 -0.0021403529)
(-0.0010322217 0 -0.0027099657)
(-0.00095680417 0 -0.0032710926)
(-0.000884228 0 -0.0038035994)
(-0.0008152186 0 -0.0042899911)
(-0.00075030668 0 -0.0047166783)
(-0.00068977034 0 -0.005074367)
(-0.0006336412 0 -0.0053574285)
(-0.00058173538 0 -0.005562787)
(-0.00053369544 0 -0.0056880567)
(-0.00048889145 0 -0.0057303695)
(-0.00044658991 0 -0.0056850412)
(-0.0004059874 0 -0.0055461393)
(-0.00036611439 0 -0.0053049754)
(-0.0003253382 0 -0.0049451173)
(-0.00028156247 0 -0.0044434842)
(-0.00023177287 0 -0.003763613)
(-0.00017201931 0 -0.0028490004)
(-9.6782337e-05 0 -0.0016172644)
(0 0 0)
(-0.0018825926 0 0.0013608272)
(-0.0018823486 0 0.0013603932)
(-0.0018821936 0 0.0013620486)
(-0.0018819767 0 0.0013639968)
(-0.0018816774 0 0.0013662767)
(-0.0018812675 0 0.0013689335)
(-0.0018807091 0 0.0013720124)
(-0.0018799517 0 0.0013755555)
(-0.0018789277 0 0.001379596)
(-0.0018775481 0 0.0013841499)
(-0.0018756951 0 0.0013892027)
(-0.0018732145 0 0.0013946897)
(-0.0018699056 0 0.0014004685)
(-0.0018655098 0 0.0014062774)
(-0.0018596972 0 0.0014116765)
(-0.0018520544 0 0.0014159635)
(-0.0018420736 0 0.0014180494)
(-0.00182916 0 0.001416188)
(-0.0018126287 0 0.0014077422)
(-0.0017916917 0 0.0013891502)
(-0.0017655138 0 0.0013557299)
(-0.0017333068 0 0.0013013777)
(-0.0016944231 0 0.0012183875)
(-0.0016484705 0 0.00109771)
(-0.0015954143 0 0.00093000391)
(-0.0015356691 0 0.0007064281)
(-0.0014700709 0 0.00041965886)
(-0.0013997645 0 6.566248e-05)
(-0.0013260612 0 -0.00035494587)
(-0.001250251 0 -0.00083616082)
(-0.0011734874 0 -0.0013665169)
(-0.0010968028 0 -0.0019297604)
(-0.0010211447 0 -0.0025065659)
(-0.00094738626 0 -0.0030762306)
(-0.00087631313 0 -0.0036186898)
(-0.00080861476 0 -0.0041163584)
(-0.00074481113 0 -0.004555411)
(-0.00068518995 0 -0.004926195)
(-0.00062980526 0 -0.0052226727)
(-0.00057849986 0 -0.0054413865)
(-0.00053093923 0 -0.0055796736)
(-0.00048652664 0 -0.0056345198)
(-0.00044454974 0 -0.0056011838)
(-0.00040421406 0 -0.0054736435)
(-0.0003645474 0 -0.0052430426)
(-0.00032394778 0 -0.0048931354)
(-0.0002803267 0 -0.0044007936)
(-0.00023070399 0 -0.0037297591)
(-0.0001711536 0 -0.0028241092)
(-9.6149884e-05 0 -0.0016020553)
(0 0 0)
(-0.0018676925 0 0.001574999)
(-0.0018674457 0 0.0015746719)
(-0.0018672687 0 0.0015765089)
(-0.0018670249 0 0.0015786728)
(-0.0018666926 0 0.0015812094)
(-0.0018662421 0 0.0015841714)
(-0.0018656338 0 0.0015876127)
(-0.0018648148 0 0.001591585)
(-0.0018637151 0 0.0015961326)
(-0.001862242 0 0.0016012836)
(-0.0018602738 0 0.0016070375)
(-0.0018576511 0 0.0016133453)
(-0.0018541669 0 0.0016200817)
(-0.0018495549 0 0.0016270041)
(-0.0018434767 0 0.0016336925)
(-0.0018355093 0 0.0016394612)
(-0.0018251493 0 0.0016431277)
(-0.0018118139 0 0.0016427632)
(-0.0017948038 0 0.0016357713)
(-0.0017733187 0 0.0016186483)
(-0.0017465406 0 0.0015865744)
(-0.0017137152 0 0.0015332938)
(-0.0016742427 0 0.0014510462)
(-0.0016278201 0 0.0013303904)
(-0.0015745129 0 0.0011616147)
(-0.001514813 0 0.00093602812)
(-0.0014496212 0 0.00064648101)
(-0.0013801143 0 0.00028909215)
(-0.0013075901 0 -0.00013540714)
(-0.0012332736 0 -0.00062099878)
(-0.0011582162 0 -0.0011562897)
(-0.0010833366 0 -0.0017251946)
(-0.0010094784 0 -0.0023086575)
(-0.00093742682 0 -0.0028862164)
(-0.00086790431 0 -0.0034379092)
(-0.00080156495 0 -0.0039461035)
(-0.0007389175 0 -0.0043967829)
(-0.00068025788 0 -0.0047799718)
(-0.0006256612 0 -0.0050892497)
(-0.00057499613 0 -0.0053207907)
(-0.00052795132 0 -0.0054716541)
(-0.00048396194 0 -0.0055386705)
(-0.00044233672 0 -0.0055170207)
(-0.00040229177 0 -0.0054005939)
(-0.00036285425 0 -0.0051803809)
(-0.00032245088 0 -0.0048402975)
(-0.00027900318 0 -0.0043571942)
(-0.00022956486 0 -0.0036950321)
(-0.00017023651 0 -0.002798492)
(-9.5498867e-05 0 -0.0015865239)
(0 0 0)
(-0.0018521306 0 0.0017844926)
(-0.0018518781 0 0.001784274)
(-0.0018516769 0 0.0017862961)
(-0.0018514035 0 0.0017886799)
(-0.0018510349 0 0.001791477)
(-0.0018505401 0 0.0017947468)
(-0.0018498774 0 0.0017985513)
(-0.0018489917 0 0.0018029519)
(-0.0018478101 0 0.001808004)
(-0.001846236 0 0.0018137487)
(-0.0018441433 0 0.0018201999)
(-0.0018413668 0 0.001827325)
(-0.0018376928 0 0.0018350173)
(-0.0018328465 0 0.0018430549)
(-0.0018264798 0 0.0018510406)
(-0.0018181717 0 0.0018582258)
(-0.0018074317 0 0.0018632634)
(-0.001793662 0 0.0018642354)
(-0.0017761388 0 0.0018586234)
(-0.0017540683 0 0.0018428585)
(-0.0017266547 0 0.0018120019)
(-0.0016931796 0 0.0017596205)
(-0.001653105 0 0.0016778109)
(-0.0016061996 0 0.0015570755)
(-0.0015526444 0 0.0013871819)
(-0.0014930282 0 0.0011592883)
(-0.0014282919 0 0.00086672061)
(-0.0013596429 0 0.00050579405)
(-0.0012883598 0 7.7375417e-05)
(-0.0012155968 0 -0.0004124939)
(-0.0011422993 0 -0.00095248173)
(-0.0010692719 0 -0.0015266641)
(-0.00099725736 0 -0.0021162719)
(-0.00092695475 0 -0.0027011081)
(-0.00085902492 0 -0.0032613417)
(-0.00079408739 0 -0.0037793322)
(-0.00073263949 0 -0.004240915)
(-0.00067498407 0 -0.0046358264)
(-0.0006212159 0 -0.0049572888)
(-0.00057122884 0 -0.0052011232)
(-0.00052473458 0 -0.0053641114)
(-0.00048119903 0 -0.0054429225)
(-0.00043995175 0 -0.0054326399)
(-0.00040022088 0 -0.0053270661)
(-0.00036103477 0 -0.0051170519)
(-0.00032084713 0 -0.0047866535)
(-0.00027759152 0 -0.004312725)
(-0.0002283553 0 -0.0036594618)
(-0.00016926819 0 -0.0027721717)
(-9.4828807e-05 0 -0.0015706752)
(0 0 0)
(-0.0018359284 0 0.001989404)
(-0.0018356672 0 0.0019892924)
(-0.0018354399 0 0.0019914977)
(-0.0018351346 0 0.0019940993)
(-0.0018347269 0 0.0019971549)
(-0.0018341841 0 0.0020007311)
(-0.0018334627 0 0.0020048981)
(-0.0018325049 0 0.0020097267)
(-0.0018312345 0 0.0020152834)
(-0.0018295513 0 0.0020216216)
(-0.0018273239 0 0.0020287694)
(-0.0018243814 0 0.0020367105)
(-0.0018205022 0 0.0020453568)
(-0.0018154024 0 0.00205451)
(-0.0018087321 0 0.0020637472)
(-0.0018000813 0 0.0020721898)
(-0.0017889487 0 0.0020784798)
(-0.001774707 0 0.0020808058)
(-0.0017566291 0 0.0020765859)
(-0.0017339354 0 0.0020621236)
(-0.0017058512 0 0.0020323696)
(-0.001671701 0 0.0019807033)
(-0.0016310156 0 0.001898984)
(-0.0015836338 0 0.0017778009)
(-0.0015298493 0 0.0016066153)
(-0.0014703538 0 0.0013762302)
(-0.0014061265 0 0.0010803993)
(-0.0013383969 0 0.000715796)
(-0.0012684183 0 0.00028343402)
(-0.001197268 0 -0.00021061574)
(-0.0011257812 0 -0.00075507137)
(-0.0010546489 0 -0.0013341617)
(-0.00098451658 0 -0.0019294232)
(-0.0009159997 0 -0.0025209458)
(-0.00084969912 0 -0.0030890533)
(-0.00078620113 0 -0.003616133)
(-0.00072599167 0 -0.0040879126)
(-0.00066937923 0 -0.0044938744)
(-0.00061647708 0 -0.0048269085)
(-0.00056720331 0 -0.0050824988)
(-0.00052129249 0 -0.0052571522)
(-0.00047824009 0 -0.0053473722)
(-0.00043739613 0 -0.005348127)
(-0.00039800204 0 -0.005253134)
(-0.00035908903 0 -0.0050531162)
(-0.00031913638 0 -0.0047322533)
(-0.00027609138 0 -0.0042674247)
(-0.00022707509 0 -0.0036230778)
(-0.00016824878 0 -0.0027451714)
(-9.4139156e-05 0 -0.0015545137)
(0 0 0)
(-0.0018190989 0 0.0021898277)
(-0.001818831 0 0.0021898222)
(-0.0018185757 0 0.0021922103)
(-0.001818236 0 0.002195029)
(-0.0018177863 0 0.0021983421)
(-0.001817192 0 0.0022022235)
(-0.0018164075 0 0.0022067516)
(-0.0018153721 0 0.0022120067)
(-0.0018140065 0 0.0022180659)
(-0.001812206 0 0.0022249948)
(-0.0018098341 0 0.0022328351)
(-0.0018067134 0 0.002241585)
(-0.0018026141 0 0.0022511716)
(-0.0017972461 0 0.0022614118)
(-0.0017902664 0 0.0022717994)
(-0.001781262 0 0.0022814074)
(-0.0017697044 0 0.0022889657)
(-0.0017549535 0 0.0022926465)
(-0.0017362863 0 0.0022897646)
(-0.0017129325 0 0.0022765308)
(-0.0016841437 0 0.0022477645)
(-0.0016492953 0 0.0021966274)
(-0.0016079893 0 0.0021147423)
(-0.0015601574 0 0.0019925972)
(-0.0015061711 0 0.0018198165)
(-0.0014468262 0 0.0015868694)
(-0.0013831703 0 0.001287537)
(-0.0013164243 0 0.00091912908)
(-0.0012478146 0 0.0004828069)
(-0.0011783349 0 -1.5325945e-05)
(-0.0011087068 0 -0.00056402728)
(-0.001039508 0 -0.0011476687)
(-0.00097129139 0 -0.0017481124)
(-0.00090459161 0 -0.0023457557)
(-0.00083995147 0 -0.0029210955)
(-0.00077792574 0 -0.0034565803)
(-0.00071898907 0 -0.0039378689)
(-0.00066345463 0 -0.0043542207)
(-0.00061145289 0 -0.0046982181)
(-0.00056292526 0 -0.0049650258)
(-0.00051762886 0 -0.0051508784)
(-0.00047508756 0 -0.0052521129)
(-0.0004346713 0 -0.0052635652)
(-0.00039563601 0 -0.0051788703)
(-0.00035701723 0 -0.0049886347)
(-0.00031731851 0 -0.0046771473)
(-0.00027450254 0 -0.0042213337)
(-0.00022572409 0 -0.0035859107)
(-0.00016717843 0 -0.0027175147)
(-9.3429532e-05 0 -0.0015380464)
(0 0 0)
(-0.0018016668 0 0.0023858559)
(-0.0018013885 0 0.0023859558)
(-0.001801103 0 0.0023885265)
(-0.0018007264 0 0.0023915618)
(-0.0018002316 0 0.0023951318)
(-0.0017995822 0 0.0023993175)
(-0.00179873 0 0.0024042054)
(-0.0017976117 0 0.0024098853)
(-0.001796144 0 0.002416445)
(-0.001794218 0 0.0024239619)
(-0.0017916915 0 0.0024324909)
(-0.0017883801 0 0.0024420445)
(-0.0017840459 0 0.0024525658)
(-0.0017783993 0 0.002463836)
(-0.0017711007 0 0.0024752967)
(-0.0017617183 0 0.0024860645)
(-0.0017497041 0 0.0024948843)
(-0.0017344129 0 0.0024998649)
(-0.0017151211 0 0.0024982567)
(-0.0016910703 0 0.0024861696)
(-0.0016615438 0 0.0024582773)
(-0.0016259778 0 0.0024074768)
(-0.0015840508 0 0.0023251518)
(-0.0015357914 0 0.0022016188)
(-0.0014816444 0 0.0020268034)
(-0.0014224976 0 0.0017911025)
(-0.0013594701 0 0.0014881561)
(-0.001293774 0 0.0011158288)
(-0.0012265984 0 0.00067553923)
(-0.0011588459 0 0.0001734227)
(-0.0010911212 0 -0.00037930802)
(-0.0010238996 0 -0.00096727177)
(-0.00095763782 0 -0.001572587)
(-0.00089277994 0 -0.0021758181)
(-0.00082982332 0 -0.0027577588)
(-0.00076929444 0 -0.0033009597)
(-0.0007116536 0 -0.003790977)
(-0.00065722208 0 -0.0042169581)
(-0.00060615199 0 -0.004571317)
(-0.00055840093 0 -0.0048488039)
(-0.00051374796 0 -0.0050453858)
(-0.00047174427 0 -0.0051572334)
(-0.00043177907 0 -0.0051790346)
(-0.00039312384 0 -0.0051043458)
(-0.00035481974 0 -0.0049236671)
(-0.00031539359 0 -0.0046213854)
(-0.00027282482 0 -0.004174492)
(-0.00022430223 0 -0.0035479925)
(-0.00016605725 0 -0.0026892255)
(-9.2699403e-05 0 -0.0015212783)
(0 0 0)
(-0.0017836454 0 0.0025775782)
(-0.0017833579 0 0.0025777833)
(-0.0017830402 0 0.0025805364)
(-0.0017826242 0 0.0025837882)
(-0.0017820812 0 0.0025876147)
(-0.0017813727 0 0.002592104)
(-0.0017804483 0 0.0025973508)
(-0.0017792413 0 0.0026034542)
(-0.0017776646 0 0.0026105124)