/*--------------------------------*- C++ -*----------------------------------*\
  =========                 |
  \\      /  F ield         | OpenFOAM: The Open Source CFD Toolbox
   \\    /   O peration     | Website:  https://openfoam.org
    \\  /    A nd           | Version:  8
     \\/     M anipulation  |
\*---------------------------------------------------------------------------*/
FoamFile
{
    version     2.0;
    format      ascii;
    class       volScalarField;
    location    "0.0199971";
    object      rho;
}
// * * * * * * * * * * * * * * * * * * * * * * * * * * * * * * * * * * * * * //

dimensions      [1 -3 0 0 0 0 0];

internalField   nonuniform List<scalar> 
20000
(
0.87993336
0.88033032
0.88164627
0.88487535
0.89192823
0.90616374
0.92612385
0.9310749
0.93009308
0.9313508
0.93121124
0.93258732
0.93326441
0.93515217
0.93680682
0.9396269
0.94260103
0.94680995
0.95158452
0.95777046
0.96501424
0.97395222
0.98442004
0.99674712
1.0107205
1.0262111
1.0426551
1.0593946
1.0755661
1.0903906
1.1035074
1.1148196
1.1239456
1.1312258
1.138617
1.1454351
1.1484427
1.1475448
1.1452181
1.1508749
1.1627794
1.1687697
1.1705053
1.1689579
1.1676217
1.1669054
1.1665893
1.1664646
1.1664191
1.1664036
0.87653692
0.8769782
0.87830302
0.88168983
0.88902121
0.90404452
0.92335697
0.92776374
0.92688744
0.92828924
0.92831296
0.92987087
0.9307315
0.93280853
0.93457905
0.93751285
0.94055427
0.94484998
0.94968613
0.95593496
0.96324287
0.97222956
0.98274827
0.99512696
1.0091861
1.0248056
1.0414481
1.0584363
1.0748671
1.0899913
1.1033562
1.1147876
1.1238447
1.1312192
1.1391629
1.1452936
1.147838
1.1468347
1.1449001
1.1526516
1.1634902
1.1690326
1.1705145
1.1689593
1.1676134
1.16691
1.1665933
1.1664658
1.1664193
1.1664037
0.87502003
0.87552066
0.87697383
0.88055578
0.88828287
0.90428538
0.92257277
0.92633227
0.92547483
0.92693571
0.92703611
0.92864279
0.92959055
0.93174553
0.93359564
0.93661887
0.93974102
0.94410144
0.94899819
0.95529907
0.96265508
0.9716794
0.98223691
0.99465328
1.0087618
1.0244445
1.0411733
1.0582621
1.0747922
1.089953
1.1033474
1.1147872
1.1238248
1.1313193
1.1395988
1.1449698
1.1466642
1.1452987
1.1447532
1.1547683
1.1646226
1.1692689
1.170582
1.1689227
1.1676182
1.1669158
1.166597
1.1664674
1.1664198
1.1664038
0.87372499
0.874475
0.87616007
0.87993559
0.88810023
0.905092
0.9223879
0.92566589
0.92481529
0.92633343
0.9265133
0.92826368
0.92916072
0.93137435
0.93326861
0.93635472
0.93951601
0.94389862
0.94880989
0.9551283
0.9625066
0.97154743
0.98212294
0.9945539
1.0086807
1.0243834
1.041137
1.0582505
1.074834
1.09017
1.103694
1.1151256
1.1240317
1.1318283
1.1399402
1.1444428
1.1455871
1.1443245
1.1447637
1.1565572
1.1654377
1.1695598
1.1706901
1.1689178
1.1676168
1.1669173
1.1665981
1.1664678
1.1664199
1.1664039
0.87431037
0.87475817
0.87638353
0.8802549
0.88872397
0.9066891
0.92267826
0.92560415
0.92467595
0.92625637
0.92635278
0.9281453
0.92905916
0.93130398
0.93321239
0.93633017
0.93953181
0.94400535
0.94904093
0.95548778
0.96299178
0.97214267
0.98281724
0.99532434
1.0095101
1.0252474
1.0420165
1.0591238
1.0756821
1.0909611
1.1044157
1.1157094
1.1245005
1.1325739
1.1401263
1.1438389
1.1445432
1.1432711
1.1453618
1.158219
1.1663082
1.169857
1.1708178
1.1689129
1.1676167
1.1669187
1.1665989
1.1664682
1.1664201
1.166404
0.8741825
0.87489205
0.87659223
0.88068961
0.88952879
0.90855053
0.92315694
0.92578126
0.92494256
0.92660585
0.9267151
0.92850091
0.92952445
0.93186805
0.93386781
0.93710046
0.94042454
0.94501733
0.95016536
0.95672645
0.96435073
0.97361223
0.9843899
0.99697411
1.011206
1.0269413
1.0436552
1.0606531
1.0770746
1.0922136
1.1055077
1.1165744
1.1252236
1.1334691
1.1402572
1.1432499
1.1436999
1.1427676
1.1466238
1.1596586
1.1671544
1.1701831
1.170939
1.1689124
1.1676143
1.1669195
1.1665994
1.1664684
1.1664202
1.166404
0.87584337
0.87621437
0.87784453
0.88205654
0.89127278
0.91126025
0.92436623
0.92666515
0.92583728
0.9275156
0.92767347
0.92954725
0.93059613
0.93301273
0.93508541
0.93841991
0.94185151
0.94657507
0.95187411
0.95859008
0.96637779
0.97579428
0.98671821
0.9994155
1.0137151
1.0294462
1.0460723
1.0628946
1.079071
1.0939336
1.1069373
1.1176885
1.1261741
1.1344123
1.140389
1.1427614
1.1430236
1.1425253
1.1482852
1.161037
1.1680448
1.1705751
1.1710267
1.1689125
1.1676094
1.1669187
1.1665998
1.1664686
1.1664202
1.1664041
0.87687478
0.87728439
0.87904026
0.88347774
0.89320602
0.91413586
0.92575793
0.9279069
0.9270754
0.92882871
0.9290312
0.93098567
0.93210368
0.93461639
0.93678371
0.94023537
0.94379528
0.9486594
0.95411063
0.96098844
0.96895474
0.97854704
0.98964194
1.0024762
1.0168595
1.0325855
1.0490971
1.0656888
1.0815461
1.096047
1.1086695
1.119038
1.1273245
1.1353514
1.1405721
1.1425231
1.1426019
1.1424909
1.1501632
1.1623525
1.1689263
1.1710906
1.1710589
1.1689071
1.1676005
1.1669148
1.166599
1.1664687
1.1664203
1.1664041
0.87876868
0.87898158
0.88081902
0.88546934
0.89570834
0.91745518
0.92751143
0.92953065
0.92871697
0.93052309
0.93076567
0.93279293
0.93397304
0.93658111
0.93884345
0.94241584
0.94610689
0.95112138
0.9567494
0.9638159
0.97199142
0.98179249
0.99309183
1.0060934
1.0205813
1.0363065
1.052684
1.0689983
1.0844646
1.0985164
1.1106688
1.1205964
1.1286457
1.136252
1.1408007
1.1424215
1.1424118
1.1425214
1.1521013
1.1636372
1.1697558
1.1717335
1.1710669
1.1688941
1.1675877
1.1669084
1.1665965
1.166468
1.1664203
1.1664042
0.88035981
0.88072475
0.88263616
0.88757613
0.89842088
0.92085159
0.92939579
0.93138795
0.9305975
0.93248573
0.9327735
0.9348859
0.93613673
0.93884491
0.94120949
0.94490714
0.94874138
0.95391738
0.95973126
0.96700049
0.97540459
0.98543683
0.99696457
1.0101559
1.0247637
1.0404901
1.0567173
1.0727176
1.087741
1.1012801
1.1128953
1.1223355
1.1301046
1.13711
1.1410652
1.1423917
1.1423375
1.143014
1.1540901
1.1649003
1.1705458
1.1723404
1.1710658
1.1688735
1.1675704
1.1668994
1.1665929
1.1664669
1.1664201
1.1664042
0.88276944
0.8829704
0.88491332
0.89009376
0.90162342
0.92448752
0.93154233
0.93353067
0.93275798
0.93470699
0.9350358
0.93722655
0.93854711
0.94135663
0.94382667
0.94765584
0.95164021
0.9569892
0.96301077
0.9705052
0.9791624
0.98945083
1.0012316
1.0146333
1.0293729
1.045098
1.0611544
1.0768041
1.0913333
1.1042995
1.1153166
1.1242237
1.1316251
1.1379522
1.1413604
1.1423864
1.1423277
1.1439514
1.1561259
1.1661356
1.1712853
1.1728982
1.1710587
1.1688442
1.167549
1.1668884
1.1665882
1.1664653
1.1664198
1.1664042
0.88511768
0.88526296
0.88728169
0.89273122
0.90507897
0.92817836
0.93372669
0.93584827
0.93510276
0.93712395
0.9374995
0.93977291
0.94116738
0.94408159
0.94666387
0.95063139
0.9547797
0.96031556
0.96655743
0.97429209
0.98322002
0.9937832
1.0058347
1.0194606
1.0343366
1.0500523
1.0659154
1.0811806
1.0951742
1.1075215
1.1178948
1.1262285
1.1331746
1.1387845
1.1417033
1.1425309
1.1424904
1.1454132
1.1581994
1.1673414
1.1719494
1.1733939
1.1710245
1.168806
1.1675236
1.1668755
1.1665829
1.1664636
1.1664194
1.1664042
0.88781415
0.88785708
0.88992618
0.89564474
0.90891623
0.93199827
0.93612494
0.93836483
0.93763684
0.9397212
0.94014225
0.94249843
0.94397219
0.94699596
0.94969963
0.95381464
0.95813909
0.96387428
0.97035581
0.9783494
0.9875675
0.99842448
1.0107635
1.024624
1.0396357
1.0553269
1.0709685
1.0858111
1.0992275
1.1109129
1.1206013
1.1283206
1.1347296
1.1396259
1.1421092
1.1428051
1.1428929
1.147314
1.1602622
1.1685437
1.172531
1.1737811
1.170974
1.16876
1.167495
1.1668614
1.1665771
1.1664616
1.1664189
1.1664043
0.89043044
0.89046915
0.89260078
0.89862353
0.91295072
0.93578089
0.9387198
0.94100039
0.9403011
0.94246442
0.9429401
0.94538807
0.94694662
0.95008807
0.95292181
0.95719593
0.96170909
0.96765741
0.97439069
0.98265655
0.99217987
1.0033453
1.0159835
1.0300828
1.0452219
1.0608666
1.0762538
1.0906359
1.1034383
1.114428
1.1234013
1.1304724
1.1362851
1.1405016
1.1425996
1.1432338
1.1434948
1.1495235
1.1622479
1.16978
1.1730679
1.174
1.1709094
1.1687075
1.1674636
1.1668462
1.166571
1.1664596
1.1664185
1.1664043
0.89331985
0.89331219
0.89549849
0.90179302
0.91730962
0.93960089
0.94144261
0.94379589
0.94312883
0.94536377
0.94589485
0.94843452
0.95008531
0.95335075
0.95632683
0.96076817
0.96548377
0.97165638
0.97865679
0.98721071
0.99705557
1.0085444
1.0214917
1.03583
1.0510823
1.0666518
1.0817456
1.0956263
1.1077774
1.1180402
1.1262713
1.1326636
1.1378411
1.1414434
1.143208
1.1437783
1.1443552
1.1518608
1.1641164
1.1710417
1.1736862
1.1740956
1.1708334
1.1686493
1.1674298
1.1668303
1.1665648
1.1664577
1.1664181
1.1664043
0.89635368
0.89630364
0.8985687
0.90513548
0.92192457
0.94341997
0.94430948
0.94672303
0.94609078
0.9484
0.94899425
0.95163319
0.95338491
0.95678423
0.95991121
0.96453086
0.969458
0.97586493
0.98314475
0.99199998
1.0021802
1.014004
1.0272655
1.0418367
1.0571803
1.0726388
1.0873952
1.1007319
1.1121972
1.1217095
1.1291809
1.1348732
1.1393984
1.1424622
1.143954
1.1444308
1.1454753
1.1541874
1.1658537
1.172243
1.1744378
1.1741226
1.1707489
1.1685859
1.1673942
1.166814
1.1665586
1.1664557
1.1664176
1.1664043
0.89949236
0.89941967
0.90178472
0.90862811
0.92674928
0.94718737
0.94729586
0.94977995
0.94918859
0.9515784
0.95224296
0.95498826
0.95684981
0.96038779
0.96367473
0.96847625
0.97362624
0.98027948
0.98785376
0.99702578
1.0075562
1.0197263
1.033305
1.0480981
1.063505
1.0788096
1.0931799
1.105926
1.1166713
1.1254143
1.1321127
1.1370901
1.1409628
1.1435593
1.1448257
1.1452252
1.1468887
1.1564932
1.1674589
1.1733375
1.1752895
1.1741201
1.1706577
1.1685172
1.1673572
1.1667976
1.1665524
1.1664538
1.1664173
1.1664043
0.90276064
0.90268253
0.90517829
0.91231756
0.93177642
0.95092099
0.95041559
0.9529724
0.95242896
0.95490512
0.95564702
0.95850259
0.96047703
0.96415775
0.96760954
0.97260261
0.97798569
0.98489648
0.99277911
1.002282
1.0131756
1.0256998
1.0395936
1.0545904
1.0700246
1.0851258
1.0990557
1.1111629
1.1211574
1.1291212
1.1350417
1.1392983
1.1425335
1.1447208
1.1458075
1.1461752
1.1485791
1.1587954
1.1689487
1.1743241
1.1760805
1.1740439
1.1705499
1.1684435
1.1673193
1.1667813
1.1665464
1.1664521
1.1664169
1.1664043
0.90614931
0.90608038
0.90873681
0.9162088
0.93696247
0.95462986
0.95368007
0.95631486
0.95582341
0.95838569
0.95920391
0.96216909
0.96425985
0.96808631
0.97171272
0.97690378
0.98253378
0.98971652
0.99792361
1.0077731
1.0190428
1.0319282
1.0461311
1.0613082
1.0767267
1.0915686
1.1049985
1.1164181
1.1256363
1.1328156
1.1379552
1.1414937
1.1441224
1.1459477
1.1468842
1.1472923
1.1505062
1.1611147
1.1703415
1.1751629
1.1767541
1.1738868
1.1704247
1.1683666
1.1672813
1.1667652
1.1665406
1.1664503
1.1664166
1.1664044
0.90965956
0.90961572
0.91247842
0.9203582
0.94229775
0.95839313
0.95710162
0.95980365
0.95935855
0.9620026
0.96289803
0.96597566
0.96818879
0.97216881
0.97597962
0.98138153
0.98727183
0.99474004
1.0032867
1.0134969
1.0251533
1.0384027
1.0529031
1.0682291
1.0835805
1.0981
1.110966
1.1216527
1.1300802
1.1364719
1.1408255
1.1436605
1.1457273
1.1472355
1.1480249
1.1485695
1.1525902
1.1634416
1.1716721
1.1758619
1.177257
1.1736925
1.1702885
1.1682879
1.1672434
1.1667495
1.166535
1.1664487
1.1664163
1.1664044
0.91327762
0.91326469
0.91637041
0.92475711
0.94769493
0.96228971
0.96062801
0.9633987
0.96300692
0.96573916
0.96671965
0.96991728
0.97226298
0.97640462
0.98041313
0.98603556
0.99220177
0.99997095
1.0088736
1.0194595
1.0315128
1.0451266
1.0599079
1.0753443
1.0905697
1.1046964
1.1169341
1.1268511
1.1344861
1.1400774
1.1436341
1.1457956
1.1473542
1.148578
1.1492194
1.149988
1.1548165
1.1657196
1.172986
1.1764694
1.1775211
1.1734782
1.1701462
1.1682088
1.1672061
1.1667343
1.1665297
1.1664472
1.166416
1.1664044
0.91695957
0.91698644
0.92038105
0.92941914
0.95307923
0.96596773
0.96425701
0.96710409
0.9667726
0.96959945
0.97067242
0.97399703
0.97648417
0.98079667
0.98501484
0.99087114
0.9973276
1.0054124
1.0146864
1.0256613
1.0381186
1.0520928
1.0671308
1.0826298
1.0976607
1.1113182
1.1228664
1.1319918
1.1388415
1.143601
1.1463514
1.1478838
1.1489871
1.149951
1.1504551
1.1514898
1.1571336
1.1678611
1.1742985
1.1770501
1.1776287
1.1732508
1.1700004
1.1681299
1.1671695
1.1667196
1.1665246
1.1664458
1.1664158
1.1664045
0.92078316
0.92084221
0.92454812
0.9344089
0.9584648
0.96977502
0.96800492
0.97093007
0.97066257
0.97358829
0.97475957
0.97821806
0.98085642
0.98534871
0.98978965
0.99589091
1.0026536
1.0110703
1.0207319
1.0321091
1.0449765
1.0593028
1.074567
1.0900717
1.104831
1.1179405
1.128748
1.1370762
1.1431288
1.147009
1.1489794
1.1499278
1.1506223
1.1513433
1.1517248
1.1530242
1.1595177
1.169776
1.1755514
1.1776933
1.177658
1.1730167
1.1698531
1.1680518
1.1671339
1.1667055
1.1665198
1.1664445
1.1664156
1.1664046
0.92465373
0.92474539
0.92879438
0.93968839
0.96377869
0.97355501
0.97186646
0.97487638
0.97467893
0.97770837
0.97898502
0.98258374
0.98538366
0.99006412
0.99474111
1.0011005
1.0081851
1.0169494
1.027014
1.038805
1.0520847
1.0667486
1.0821986
1.0976407
1.1120431
1.124528
1.1345604
1.1420907
1.1472873
1.1502755
1.1515067
1.1519182
1.1522421
1.1527358
1.1530157
1.1546045
1.1618492
1.1714919
1.1766751
1.1785144
1.1776425
1.1727811
1.1697056
1.1679749
1.1670994
1.166692
1.1665153
1.1664433
1.1664154
1.1664046
0.92868375
0.92880083
0.93319789
0.94534678
0.96906998
0.97763425
0.9758559
0.97894969
0.97882486
0.98196259
0.9833514
0.98709755
0.99006922
0.99494682
0.99987344
1.0065042
1.0139279
1.0230573
1.0335405
1.0457564
1.0594479
1.0744288
1.0900144
1.1053155
1.1192705
1.131064
1.1403049
1.1470101
1.1512734
1.1533834
1.1539419
1.1538572
1.1538477
1.1541217
1.1543263
1.1562802
1.1640964
1.1730402
1.1777264
1.1793493
1.1774465
1.172549
1.1695581
1.1678995
1.1670662
1.1666791
1.166511
1.1664422
1.1664153
1.1664047
0.93277319
0.93292301
0.93767725
0.95131729
0.97425646
0.98172005
0.97995495
0.98314417
0.98310009
0.98635436
0.98786211
0.99176228
0.99491629
1.0000004
1.0051919
1.012109
1.0198892
1.0294006
1.0403169
1.0529662
1.0670636
1.0823321
1.0979905
1.1130609
1.1264778
1.1375312
1.145967
1.1517604
1.1550484
1.1563296
1.156281
1.1557248
1.1554339
1.1554874
1.1556531
1.1580785
1.1662736
1.1744532
1.1786655
1.1800765
1.1771109
1.1723044
1.1694107
1.1678261
1.1670343
1.166667
1.1665071
1.1664412
1.1664152
1.1664048
0.93698396
0.93716206
0.94228881
0.95762924
0.9793905
0.9859558
0.9841942
0.98747705
0.9875129
0.99088679
0.99251888
0.99658017
0.99992875
1.0052303
1.0107026
1.0179217
1.0260771
1.0359883
1.0473522
1.0604416
1.0749346
1.0904512
1.106108
1.12085
1.1336463
1.1439306
1.1515111
1.1562934
1.1585988
1.1591794
1.158507
1.157511
1.15699
1.156836
1.157006
1.159958
1.1684064
1.1757503
1.1794424
1.1806272
1.1767121
1.1720494
1.169265
1.1677553
1.167004
1.1666555
1.1665033
1.1664403
1.1664151
1.1664049
0.94131737
0.94152824
0.94705563
0.96426339
0.98453976
0.99028779
0.98855245
0.99193174
0.99205497
0.99555649
0.9973242
1.0015547
1.0051117
1.0106423
1.016413
1.0239513
1.0325003
1.0428285
1.0546529
1.0681855
1.0830552
1.0987677
1.1143342
1.1286467
1.1407552
1.1502481
1.1568583
1.1605711
1.1619672
1.161903
1.1606068
1.1592233
1.1584835
1.1581696
1.1583908
1.1618759
1.1704921
1.1769575
1.1800598
1.1809421
1.1762918
1.1717909
1.1691226
1.1676873
1.1669752
1.1666447
1.1664998
1.1664394
1.166415
1.1664051
0.94572653
0.94597684
0.95194625
0.9711317
0.98953393
0.99472169
0.99303016
0.99651665
0.996734
1.0003721
1.0022841
1.006692
1.0104717
1.0162445
1.0223316
1.0302067
1.0391687
1.0499319
1.0622287
1.0762038
1.091423
1.1072656
1.1226419
1.1364276
1.1478017
1.1564398
1.1619586
1.1645827
1.1652111
1.1644743
1.1625845
1.1608586
1.159921
1.1594874
1.1598243
1.16386
1.17248
1.1780952
1.1805657
1.1810628
1.175864
1.1715341
1.168985
1.1676225
1.1669479
1.1666345
1.1664966
1.1664387
1.166415
1.1664052
0.95022664
0.95053524
0.95701211
0.97821498
0.99448865
0.99928148
0.99764469
1.0012445
1.0015578
1.0053366
1.0074031
1.0119972
1.0160166
1.0220455
1.028468
1.0366984
1.0460927
1.0573083
1.0700869
1.0844969
1.1000255
1.1159162
1.1309939
1.1441658
1.1547737
1.1624234
1.1667679
1.1683805
1.168299
1.166882
1.164433
1.1624064
1.1613025
1.1607865
1.1613128
1.1659248
1.174297
1.179154
1.1810793
1.1810884
1.1754384
1.1712828
1.1688529
1.1675608
1.1669221
1.1666249
1.1664936
1.166438
1.166415
1.1664054
0.95486984
0.95523223
0.96230095
0.98546363
0.99941357
1.0039742
1.0023955
1.0061112
1.0065258
1.0104519
1.0126873
1.0174793
1.0217564
1.0280554
1.034832
1.0434376
1.0532846
1.0649702
1.0782371
1.0930672
1.108851
1.1246937
1.1393628
1.1518499
1.1616345
1.1681376
1.1712705
1.1720264
1.1712051
1.1691271
1.1661548
1.1638682
1.1626327
1.1620683
1.1628636
1.1680391
1.1759063
1.1801455
1.1817305
1.1810622
1.1750257
1.1710401
1.1687267
1.1675023
1.1668978
1.1666159
1.1664908
1.1664373
1.166415
1.1664055
0.95963383
0.96007992
0.96783502
0.99279737
1.0042997
1.0087939
1.0072723
1.0111122
1.0116424
1.0157286
1.0181485
1.0231493
1.0277001
1.0342834
1.0414348
1.0504375
1.060758
1.072929
1.0866853
1.1019086
1.1178768
1.1335616
1.147718
1.1594664
1.168296
1.1735341
1.1755248
1.1754815
1.1739227
1.1712059
1.1677445
1.1652398
1.1639105
1.1633288
1.164475
1.1701069
1.1773743
1.1811273
1.1824428
1.1808167
1.1746346
1.1708073
1.1686063
1.1674468
1.1668749
1.1666075
1.1664881
1.1664368
1.166415
1.1664057
0.9645234
0.96504581
0.97364121
1.0000704
1.0091628
1.0137384
1.0122968
1.0162677
1.0169259
1.021181
1.0237978
1.0290143
1.0338556
1.04074
1.0482898
1.0577135
1.068528
1.0811978
1.0954379
1.1110151
1.1270794
1.1424903
1.1560403
1.1669996
1.1746765
1.1785855
1.1795943
1.1787216
1.1764524
1.1731218
1.1692069
1.1665264
1.1651365
1.1645643
1.1661182
1.1721071
1.1787132
1.1820213
1.1830971
1.1803756
1.1742684
1.1705834
1.1684914
1.1673944
1.1668534
1.1665997
1.1664857
1.1664363
1.1664151
1.1664059
0.96953831
0.97012091
0.97976657
1.0073353
1.0142311
1.0188381
1.0174855
1.0215957
1.0223858
1.0268138
1.0296385
1.0350797
1.0402324
1.04744
1.0554143
1.0652833
1.07661
1.0897872
1.1044956
1.1203694
1.1364246
1.1514437
1.164308
1.1743595
1.180725
1.1833423
1.1834452
1.1817395
1.1787908
1.174872
1.1705418
1.1677294
1.1663088
1.1657656
1.1676835
1.1740399
1.1799258
1.1827715
1.1836289
1.1797976
1.1738992
1.1703663
1.1683818
1.1673449
1.1668332
1.1665924
1.1664835
1.1664358
1.1664152
1.1664061
0.974705
0.97532345
0.98624441
1.0146116
1.0194453
1.024111
1.0228439
1.0270925
1.028019
1.0326238
1.0356746
1.0413562
1.0468473
1.0544029
1.062828
1.0731649
1.0850195
1.0987074
1.1138571
1.1299526
1.1458805
1.1603953
1.1725067
1.1814616
1.1863983
1.1878695
1.1870517
1.1845383
1.1809396
1.1764538
1.1717622
1.1688574
1.1674309
1.16693
1.169188
1.1758921
1.1810168
1.1833551
1.1839332
1.1791734
1.1735283
1.1701566
1.1682779
1.1672984
1.1668143
1.1665855
1.1664814
1.1664355
1.1664153
1.1664063
0.98011631
0.98073824
0.99309562
1.0218291
1.0247785
1.0295348
1.0283522
1.0327481
1.0338263
1.0386185
1.0419217
1.0478653
1.0537235
1.0616516
1.0705509
1.081376
1.0937704
1.1079645
1.1235122
1.1397343
1.1554086
1.1693145
1.1805804
1.1882239
1.1917155
1.1921624
1.1903975
1.1871164
1.1828962
1.1778589
1.1728758
1.1699146
1.1685105
1.1680697
1.1708031
1.1776134
1.1819834
1.1838197
1.18404
1.1785401
1.1731616
1.1699559
1.1681799
1.1672549
1.1667967
1.1665792
1.1664795
1.1664351
1.1664154
1.1664065
0.98576113
0.98634085
1.0003086
1.0289158
1.030229
1.0351038
1.0340163
1.0385704
1.0398233
1.0448241
1.0484079
1.0546345
1.0608849
1.0692074
1.078602
1.0899338
1.1028761
1.1175622
1.1334471
1.1496836
1.1649778
1.1781823
1.1884348
1.1945979
1.1967419
1.1961877
1.1934895
1.1894801
1.1846631
1.1790936
1.1738931
1.1709095
1.1695614
1.1692159
1.1725461
1.1791427
1.182858
1.1842825
1.1840479
1.1779139
1.1728052
1.1697657
1.168088
1.1672142
1.1667803
1.1665732
1.1664778
1.1664349
1.1664156
1.1664068
0.99156602
0.99204955
1.0078463
1.035871
1.0358133
1.0408394
1.039865
1.0445949
1.0460483
1.0512748
1.0551635
1.0616871
1.068352
1.0770893
1.0869993
1.0988548
1.1123473
1.1274974
1.1436367
1.15976
1.1745512
1.186968
1.1959641
1.2005534
1.201522
1.1999122
1.1963269
1.1916306
1.1862401
1.1801676
1.1748182
1.1718504
1.1705857
1.1703883
1.1743213
1.1804795
1.1836934
1.1848502
1.1840081
1.1773085
1.1724642
1.1695869
1.1680021
1.1671762
1.1667649
1.1665677
1.1664762
1.1664346
1.1664157
1.1664071
0.99758929
0.99796208
1.0157106
1.042709
1.0415721
1.0467869
1.0459455
1.0508686
1.052536
1.0579959
1.0622073
1.0690401
1.0761411
1.0853154
1.095761
1.1081553
1.1221932
1.137762
1.154053
1.1699274
1.1840978
1.1955882
1.2031037
1.206151
1.206012
1.2033461
1.1989188
1.1935755
1.1876307
1.181096
1.1756662
1.1727547
1.1715673
1.1716061
1.1760566
1.18169
1.1844973
1.1854454
1.1837817
1.1767409
1.1721436
1.1694199
1.1679219
1.1671407
1.1667505
1.1665626
1.1664747
1.1664344
1.1664159
1.1664074
1.0039079
1.0041808
1.023916
1.0495115
1.0475875
1.053
1.0522934
1.0574109
1.0592996
1.0649948
1.0695494
1.0767081
1.0842701
1.093906
1.1049069
1.1178512
1.1324173
1.1483383
1.164657
1.1801458
1.1935838
1.2039282
1.2097882
1.211457
1.2101748
1.206487
1.2012693
1.1953171
1.1888344
1.1818882
1.1764431
1.1736257
1.1724987
1.1728741
1.1777259
1.1827988
1.1852429
1.1860014
1.1833682
1.1762244
1.1718458
1.1692641
1.167847
1.1671075
1.1667372
1.1665578
1.1664734
1.1664343
1.1664161
1.1664077
1.01052
1.0107517
1.0324117
1.0564404
1.0538737
1.0594724
1.0588969
1.0642094
1.0663381
1.0722782
1.0772038
1.0847109
1.0927614
1.1028841
1.1144577
1.1279566
1.1430185
1.1592023
1.1754107
1.1903786
1.2029686
1.2118815
1.2160415
1.2164606
1.2140035
1.209346
1.2033904
1.1968651
1.1898591
1.1825574
1.1771547
1.1744583
1.1733971
1.1741861
1.1793307
1.1838051
1.185887
1.1864668
1.182778
1.1757665
1.1715688
1.1691182
1.1677767
1.1670765
1.1667247
1.1665534
1.1664721
1.1664342
1.1664164
1.1664081
1.0173868
1.0176892
1.0410921
1.0636146
1.0603586
1.0661668
1.065745
1.0712648
1.0736652
1.079866
1.0851934
1.093074
1.1016405
1.1122743
1.1244338
1.1384814
1.1539855
1.1703186
1.1862694
1.2005819
1.212128
1.2193778
1.2219227
1.2211176
1.2174997
1.2119279
1.2052885
1.1982278
1.1907238
1.1831101
1.1778044
1.1752523
1.1742769
1.1755356
1.1808564
1.184703
1.1863867
1.1866974
1.1820683
1.175329
1.1713061
1.1689804
1.1677108
1.1670475
1.1667131
1.1665493
1.166471
1.1664342
1.1664166
1.1664085
1.0244323
1.0250107
1.0498731
1.0704982
1.0670856
1.0731222
1.0728703
1.0786106
1.0813078
1.0877856
1.0935464
1.1018264
1.1109341
1.1221007
1.1348535
1.1494306
1.1653001
1.181648
1.1971911
1.2107168
1.2209443
1.2263731
1.2274925
1.2253935
1.2206723
1.2142469
1.2069764
1.1994176
1.1914567
1.183565
1.1784048
1.1760178
1.175158
1.1769322
1.1822489
1.1854868
1.1867851
1.1867633
1.181326
1.1748973
1.1710547
1.1688503
1.1676491
1.1670205
1.1667023
1.1665455
1.1664701
1.1664342
1.166417
1.1664089
1.0317815
1.0328987
1.0588242
1.0776088
1.0740883
1.0803616
1.0802991
1.086263
1.0892938
1.0960671
1.1022936
1.1109984
1.1206694
1.1323876
1.1457325
1.1608004
1.1769321
1.1931419
1.2081235
1.2206975
1.2293044
1.2329202
1.2326892
1.2292945
1.2235279
1.216313
1.2084641
1.20044
1.1920519
1.1839486
1.1789676
1.1767693
1.1760538
1.1783571
1.1834526
1.1861857
1.1871893
1.1867453
1.1805761
1.1744716
1.1708145
1.1687279
1.1675914
1.1669954
1.1666923
1.1665421
1.1664692
1.1664343
1.1664173
1.1664093
1.039273
1.0412668
1.067793
1.0850019
1.0813884
1.0879019
1.0880548
1.0942654
1.0976584
1.1047445
1.111467
1.1206192
1.1308741
1.1431577
1.1570819
1.1725794
1.1888446
1.2047552
1.2190175
1.2303888
1.2371335
1.2390978
1.2374749
1.2328259
1.2260811
1.2181429
1.2097693
1.201302
1.1924204
1.1842974
1.1795108
1.1775203
1.1769742
1.1797855
1.1844971
1.1868264
1.1876382
1.1866636
1.1798351
1.1740564
1.1705867
1.1686132
1.1675379
1.1669721
1.166683
1.1665389
1.1664685
1.1664344
1.1664177
1.1664098
1.0470629
1.0502853
1.0768727
1.0927063
1.0890247
1.0957867
1.0961799
1.1026438
1.1064347
1.1138493
1.1210938
1.1307191
1.1415741
1.1544328
1.1689058
1.1847424
1.2009877
1.2164312
1.2298127
1.2396473
1.2444324
1.2448882
1.2418326
1.2359956
1.2283433
1.2197487
1.2109055
1.2020169
1.1925555
1.1845994
1.1800458
1.1782834
1.1779154
1.1812016
1.1854443
1.1874522
1.1881107
1.18643
1.1791172
1.1736573
1.1703726
1.1685067
1.1674883
1.1669506
1.1666745
1.166536
1.1664678
1.1664345
1.1664181
1.1664104
1.0550915
1.0598867
1.0860312
1.1006655
1.0970275
1.1040419
1.1047051
1.111432
1.1156521
1.1234097
1.1312041
1.1413274
1.1527988
1.1662305
1.1811993
1.1972554
1.2133094
1.2281088
1.2403835
1.2483737
1.2512691
1.2502421
1.2457723
1.2388185
1.2303339
1.2211485
1.2118818
1.2025778
1.1925779
1.184871
1.1805801
1.179041
1.1788735
1.1825445
1.1863311
1.1880817
1.1885994
1.1860716
1.1784377
1.1732804
1.1701738
1.1684083
1.1674425
1.1669307
1.1666666
1.1665333
1.1664673
1.1664348
1.1664185
1.166411
1.0634412
1.0702119
1.0953479
1.1089912
1.1054464
1.1127064
1.1136603
1.1206483
1.1253354
1.1334566
1.1418303
1.15248
1.1645764
1.1785635
1.1939443
1.2100694
1.2257483
1.2397174
1.2505692
1.2564969
1.2577058
1.2551097
1.2492989
1.2413085
1.2320699
1.2223607
1.212702
1.2028813
1.1925461
1.1851264
1.1811194
1.1797604
1.1798532
1.1838225
1.1871526
1.1886869
1.1890753
1.1855784
1.1778123
1.1729317
1.1699912
1.1683178
1.1674003
1.1669123
1.1666593
1.1665309
1.1664668
1.166435
1.166419
1.1664116
1.07206
1.0812836
1.1048433
1.1176872
1.1142787
1.121778
1.1230647
1.1303198
1.1355184
1.1440317
1.1530147
1.1642149
1.1769343
1.1914319
1.2071093
1.2231276
1.238238
1.2511686
1.2602208
1.2640747
1.2636693
1.2595062
1.2524285
1.2434864
1.2335743
1.22341
1.2133867
1.2029716
1.1924344
1.1853802
1.1816661
1.1804254
1.1808791
1.1850433
1.1879207
1.1892048
1.189401
1.1849659
1.1772564
1.1726151
1.1698243
1.1682346
1.1673612
1.1668952
1.1666525
1.1665287
1.1664665
1.1664354
1.1664196
1.1664124
1.0809119
1.093078
1.1145108
1.1267512
1.1235345
1.1312814
1.1329539
1.1404934
1.1462507
1.155187
1.1648038
1.1765712
1.1898901
1.2048251
1.2206466
1.2363616
1.250693
1.2622776
1.2692341
1.2711871
1.2691046
1.2634324
1.2551759
1.245371
1.2348652
1.2243102
1.2139492
1.2029523
1.1922716
1.185631
1.1822144
1.1810734
1.1819592
1.1861877
1.188623
1.1896196
1.1895409
1.1842423
1.1767802
1.1723296
1.1696712
1.1681576
1.1673249
1.1668793
1.1666462
1.1665267
1.1664662
1.1664358
1.1664202
1.1664132
1.0899437
1.1055087
1.1244125
1.136232
1.1332682
1.1412774
1.1433897
1.1512315
1.1575911
1.1669796
1.1772433
1.1895805
1.2034511
1.2187104
1.2344939
1.2496954
1.2630242
1.2728757
1.277617
1.2777978
1.2740034
1.2669059
1.2575639
1.2469869
1.2359639
1.2250634
1.2143216
1.2028076
1.1921012
1.1858802
1.1827665
1.1817167
1.1831056
1.1871936
1.1892279
1.1899999
1.1895544
1.1834891
1.1763436
1.1720659
1.169529
1.1680859
1.1672911
1.1668645
1.1666405
1.1665249
1.1664661
1.1664363
1.1664209
1.166414
1.0992473
1.118513
1.1346586
1.1462378
1.1435693
1.1518351
1.1544468
1.1625973
1.1696006
1.1794619
1.1903744
1.2032634
1.2176048
1.2330401
1.2485735
1.2630308
1.2750632
1.2828139
1.2854374
1.2838378
1.2783711
1.269942
1.2596146
1.2483575
1.236892
1.225674
1.2144712
1.202491
1.1919593
1.1861229
1.1833295
1.1823787
1.1842895
1.1880493
1.1897658
1.1904154
1.1895103
1.1827415
1.1759259
1.1718179
1.1693956
1.1680189
1.1672596
1.1668508
1.1666352
1.1665234
1.1664661
1.1664368
1.1664217
1.166415
1.1090265
1.1323296
1.145301
1.1568365
1.1544925
1.1630184
1.1661875
1.1746584
1.1823333
1.1926843
1.2042277
1.2176258
1.2323215
1.2477432
1.2627985
1.2762621
1.2866124
1.2920348
1.2927272
1.2892699
1.2822236
1.2725668
1.2613553
1.2495087
1.2376744
1.2261665
1.2144917
1.2020692
1.1918301
1.186363
1.1839062
1.1830635
1.185415
1.1888102
1.1902676
1.1908318
1.1893525
1.1820166
1.1755223
1.1715832
1.1692704
1.1679562
1.1672303
1.1668382
1.1666304
1.1665221
1.1664662
1.1664375
1.1664226
1.1664161
1.1191989
1.1470525
1.1564281
1.1680896
1.1661097
1.1748995
1.1786863
1.1874794
1.1958372
1.2066847
1.218824
1.2326557
1.2475474
1.2627365
1.2770592
1.289239
1.2974762
1.3005968
1.2993898
1.2941051
1.2855788
1.2748051
1.2628106
1.2504624
1.2383281
1.2265544
1.2144069
1.2015698
1.1917134
1.186603
1.1844841
1.1837671
1.1864732
1.1895054
1.1907448
1.191225
1.1890757
1.1813181
1.1751322
1.171361
1.1691528
1.1678979
1.1672032
1.1668266
1.1666261
1.166521
1.1664665
1.1664383
1.1664235
1.1664173
1.1298861
1.1625897
1.168183
1.1800658
1.1785049
1.1875464
1.1920081
1.2011159
1.2101486
1.2214917
1.2341686
1.2483221
1.263211
1.2779145
1.2912258
1.3017268
1.3075423
1.3085821
1.305367
1.298356
1.2884653
1.2766856
1.2640072
1.2512426
1.2388624
1.22677
1.2141688
1.2010236
1.1916112
1.1868602
1.1850612
1.1844825
1.1874446
1.190166
1.1912079
1.1915873
1.1887049
1.180646
1.174756
1.1711509
1.1690428
1.1678438
1.1671782
1.166816
1.1666223
1.1665201
1.1664669
1.1664391
1.1664246
1.1664187
1.1412272
1.1788148
1.1806722
1.1928086
1.1917292
1.2009882
1.2061853
1.2156137
1.2253034
1.2371267
1.2502568
1.2645704
1.2792131
1.2931551
1.305142
1.3134951
1.3168577
1.3158669
1.3106711
1.3020421
1.2909085
1.2782331
1.2649705
1.2518753
1.2392944
1.2268611
1.2138011
1.2004437
1.191524
1.1871363
1.1856301
1.1852011
1.1883498
1.1907986
1.1916642
1.1919273
1.1882531
1.1800024
1.1743959
1.1709536
1.1689408
1.167794
1.1671554
1.1668064
1.1666188
1.1665194
1.1664674
1.1664401
1.1664258
1.1664202
1.1537695
1.1956343
1.1938903
1.2062861
1.2058272
1.2152311
1.2212285
1.2310225
1.2413486
1.2536109
1.2670572
1.2813166
1.2954296
1.308291
1.3185374
1.3243844
1.3255269
1.32238
1.3153131
1.305194
1.2929407
1.2794796
1.2657345
1.2523906
1.2396415
1.2268803
1.2133015
1.1998538
1.1914611
1.1874383
1.1861825
1.1859242
1.1891981
1.1913944
1.192104
1.1922393
1.1877347
1.1793967
1.1740559
1.1707705
1.168847
1.1677486
1.1671347
1.1667978
1.1666158
1.166519
1.166468
1.1664413
1.1664272
1.166422
1.1676197
1.2130248
1.2080335
1.2206124
1.2209114
1.230401
1.2371972
1.2473995
1.2583315
1.2709444
1.2845096
1.2984349
1.3116994
1.3231367
1.3311579
1.3344334
1.3334028
1.3281313
1.3193143
1.3078422
1.2945963
1.2804678
1.2663418
1.2528134
1.2398859
1.2268346
1.2126594
1.1992953
1.1914311
1.1877704
1.1866998
1.1866675
1.1899869
1.1919473
1.192502
1.1924953
1.1871592
1.1788449
1.1737419
1.1706036
1.1687621
1.1677075
1.167116
1.16679
1.1666132
1.1665187
1.1664689
1.1664426
1.1664288
1.1664239
1.183368
1.2297958
1.2231854
1.2358833
1.2371178