/*--------------------------------*- C++ -*----------------------------------*\
  =========                 |
  \\      /  F ield         | OpenFOAM: The Open Source CFD Toolbox
   \\    /   O peration     | Website:  https://openfoam.org
    \\  /    A nd           | Version:  8
     \\/     M anipulation  |
\*---------------------------------------------------------------------------*/
FoamFile
{
    version     2.0;
    format      ascii;
    class       surfaceVectorField;
    location    "0.0199971";
    object      rhoUf;
}
// * * * * * * * * * * * * * * * * * * * * * * * * * * * * * * * * * * * * * //

dimensions      [1 -2 -1 0 0 0 0];

internalField   nonuniform List<vector> 
39600
(
(210.37072 1.4514304e-16 -7.3450333)
(195.90147 -6.0824766e-18 -7.4796467)
(195.10236 1.4053053e-16 -6.7029678)
(237.44464 -7.0987087e-17 -8.3749975)
(228.12729 0 -8.4034683)
(227.08502 8.610218e-17 -7.4805026)
(257.51333 -2.4382793e-17 -9.1808629)
(249.32241 -7.6937248e-17 -9.3086537)
(248.19152 -2.2145852e-16 -8.303619)
(276.18626 7.2756787e-17 -9.9640239)
(268.14991 1.3397907e-16 -10.11677)
(266.96408 1.8933633e-16 -9.0478193)
(295.06238 -4.5635923e-17 -10.792342)
(286.73246 -5.924435e-17 -10.941524)
(285.49277 -5.191399e-17 -9.8071148)
(312.12355 -1.5475867e-17 -11.606286)
(306.12241 -4.9574284e-17 -11.820565)
(304.72053 -7.2460032e-18 -10.614556)
(321.56204 4.706212e-17 -12.019689)
(320.07793 4.3321475e-17 -12.689914)
(319.67926 -3.3305357e-17 -11.46983)
(322.90238 -2.7231508e-17 -12.015959)
(323.38767 8.8147827e-21 -12.417362)
(323.59963 3.3349846e-17 -11.242915)
(322.57265 -3.2706616e-17 -11.932721)
(322.12818 -6.1239697e-17 -12.824291)
(322.35324 -5.9401601e-17 -11.605936)
(322.68533 1.9180037e-17 -11.861578)
(322.95974 2.7480012e-17 -12.158862)
(323.13727 4.7045236e-17 -10.985337)
(322.4986 6.0545482e-18 -11.761321)
(322.23155 4.2520948e-17 -12.759269)
(322.40337 2.2432697e-18 -11.533861)
(322.54142 -7.0361854e-18 -11.654309)
(322.67274 -3.76004e-17 -11.981555)
(322.83503 -1.9387411e-17 -10.776458)
(322.4322 1.605629e-17 -11.534529)
(322.26473 1.454005e-17 -12.56713)
(322.39947 1.5176011e-17 -11.295391)
(322.4553 1.1569876e-18 -11.40519)
(322.53614 3.130804e-18 -11.855142)
(322.64966 -1.1748381e-17 -10.573299)
(322.40614 -6.6193041e-19 -11.26217)
(322.28259 -2.1018711e-17 -12.276292)
(322.39693 1.2732439e-18 -10.931864)
(322.44328 -2.2659824e-18 -11.112587)
(322.43455 3.4884292e-17 -11.717832)
(322.52092 6.1346174e-18 -10.33516)
(322.43487 -2.4488421e-18 -10.948599)
(322.29167 -1.0676742e-17 -11.934917)
(322.3769 7.5837313e-21 -10.488621)
(322.47744 -7.1141053e-19 -10.775153)
(322.39742 1.2347564e-17 -11.525613)
(322.46095 -2.99699e-18 -10.025189)
(322.49196 -1.2560957e-17 -10.580513)
(322.33366 2.9388388e-19 -11.559735)
(322.38999 2.162773e-18 -10.004067)
(322.51481 -2.7809702e-18 -10.366246)
(322.39046 -2.5503702e-17 -11.243935)
(322.43166 -2.089173e-17 -9.6275306)
(322.48861 1.9404372e-17 -10.13641)
(322.33413 1.3964795e-17 -11.140053)
(322.35989 2.0603957e-17 -9.4682126)
(322.42032 4.9549469e-18 -9.8928763)
(322.29992 -1.1997314e-17 -10.866088)
(322.30751 -2.3987407e-18 -9.1425855)
(322.25845 2.0892133e-17 -9.6380522)
(322.15575 2.4870148e-19 -10.673329)
(322.1443 7.2568111e-18 -8.9157857)
(321.97369 5.870799e-18 -9.3709813)
(321.93327 5.8112432e-17 -10.397806)
(321.90294 1.6601234e-17 -8.6239731)
(321.50678 -4.5540361e-18 -9.0911186)
(321.54111 -1.3104349e-17 -10.132166)
(321.49273 -1.0272488e-17 -8.3751614)
(320.81726 1.145796e-17 -8.7896309)
(320.95429 2.3153141e-17 -9.8076544)
(320.89222 8.3707565e-18 -8.1070062)
(319.8791 -1.3088539e-18 -8.4450631)
(320.11962 -9.6173837e-19 -9.4385776)
(320.05325 2.1831114e-18 -7.8420573)
(318.7056 0 -8.0222598)
(319.0397 -4.0101395e-17 -8.9775959)
(318.98032 1.4350573e-18 -7.5292674)
(317.32593 -2.8540368e-17 -7.4772318)
(317.745 1.3342466e-17 -8.3975176)
(317.70337 0 -7.1295566)
(315.8088 -5.8079171e-17 -6.7713037)
(316.33012 2.2510037e-17 -7.6615005)
(316.31125 -2.3877843e-17 -6.5861541)
(314.26016 -4.0517712e-17 -5.9191849)
(314.83587 -6.0240939e-17 -6.7663343)
(314.84238 -1.9723347e-17 -5.8787679)
(312.75791 -2.3420612e-17 -4.9745795)
(313.33709 1.4316116e-17 -5.7686463)
(313.35807 -8.9255642e-18 -5.0587561)
(311.40065 -1.0368145e-17 -4.0220775)
(311.88027 -9.3144291e-18 -4.6778471)
(311.90361 -9.0509297e-18 -4.133485)
(310.21444 0 -3.1843845)
(310.66204 -8.5652974e-17 -3.7041311)
(310.67465 0 -3.2600895)
(309.18926 3.5818994e-17 -2.130787)
(309.58895 2.6504175e-17 -3.0457715)
(309.6486 0 -2.6473181)
(308.28535 1.1342172e-16 -0.67811979)
(308.36745 -1.081504e-17 -2.30165)
(308.47156 1.6581938e-17 -2.003908)
(307.11749 7.6195145e-17 -0.75827981)
(307.48023 1.5350615e-17 -1.2604437)
(307.37974 2.8762544e-17 -1.1227236)
(306.51684 -1.1951882e-17 -1.0516589)
(307.10855 -2.2257733e-17 -0.16528795)
(306.94451 -7.5437616e-18 -0.16034911)
(306.93386 3.3927384e-17 0.44788045)
(307.01001 -1.2879411e-16 0.52945246)
(307.07175 3.9916706e-20 0.58128492)
(306.67414 1.1388064e-16 0.59134498)
(306.71737 -1.3158583e-17 0.012547089)
(306.84752 1.5090477e-17 0.27587176)
(306.23709 9.5966736e-17 1.0214127)
(305.58784 1.4382583e-16 -1.0738345)
(305.76146 2.7837975e-17 -0.80541364)
(305.34036 6.5461882e-17 -0.34627335)
(305.0493 -6.6242932e-20 -1.4823321)
(305.00371 0 -1.3594378)
(304.93391 1.4429405e-16 -1.0536065)
(304.96758 -1.6891951e-16 -1.2438158)
(304.94462 1.7475599e-17 -1.2336798)
(304.84495 7.7768844e-17 -0.77669962)
(304.94318 -1.1603887e-16 -0.73996312)
(304.93985 1.4658182e-17 -0.76076998)
(304.82665 6.0746041e-17 -0.39439886)
(304.91484 -9.0963937e-17 -0.28518375)
(304.92429 -1.9667669e-18 -0.29809714)
(304.80809 7.5568282e-17 -0.13294416)
(304.86415 1.4406807e-16 -0.05993001)
(304.87079 7.9493813e-18 -0.064329525)
(304.79555 0 0.00093182062)
(304.82082 -1.2536073e-17 0.03410655)
(304.82382 2.8411078e-18 0.032914944)
(304.78747 2.0632473e-19 0.056884654)
(304.79656 4.7148835e-18 0.068284107)
(304.79746 2.3889063e-18 0.068023608)
(304.783 -2.0697446e-17 0.077522848)
(304.78573 -6.0984678e-17 0.079371898)
(304.78592 -7.9964257e-18 0.079326865)
(304.78152 -4.2865008e-17 0.082537463)
(304.78152 3.9680204e-18 0.082534811)
(210.66351 -1.4834204e-16 -8.1709671)
(196.47635 -1.3490239e-16 -8.2618062)
(237.93307 1.4096861e-19 -9.2877168)
(228.8754 3.9193926e-19 -9.3114119)
(258.14154 6.1342926e-17 -10.153767)
(250.20525 1.5310511e-19 -10.297715)
(276.93045 2.0071039e-17 -10.994626)
(269.14279 -2.9861705e-18 -11.168204)
(295.97206 -6.3838028e-17 -11.879697)
(287.8095 -5.6935384e-17 -12.057656)
(312.76071 6.204394e-19 -12.729616)
(307.39903 1.0540035e-16 -13.010774)
(321.55204 7.4392988e-19 -13.135341)
(320.35301 -4.3527639e-17 -13.89471)
(322.68134 -2.8434252e-17 -13.146244)
(323.22536 0 -13.582556)
(322.38858 -9.381947e-18 -13.08271)
(321.93461 7.0202817e-19 -14.056665)
(322.53248 4.9102117e-17 -13.029776)
(322.78339 2.526637e-17 -13.357039)
(322.37389 6.1603681e-18 -12.965342)
(322.08106 -7.8166982e-19 -14.043019)
(322.4647 -2.0614576e-17 -12.905596)
(322.54948 -1.6379181e-17 -13.245841)
(322.39673 2.8119749e-18 -12.837181)
(322.16468 0 -13.916703)
(322.44887 -1.6626143e-17 -12.761748)
(322.44946 3.0491454e-18 -13.203495)
(322.40929 9.2647904e-18 -12.672602)
(322.20081 -2.1769641e-17 -13.693303)
(322.44239 3.0291167e-17 -12.5743)
(322.36505 3.627884e-17 -13.158061)
(322.43029 1.9342864e-18 -12.461824)
(322.22152 -2.9223937e-17 -13.433064)
(322.46627 1.4300131e-17 -12.335657)
(322.33905 2.7264965e-17 -13.062795)
(322.46863 -1.0249461e-17 -12.192797)
(322.28188 7.9261521e-18 -13.146983)
(322.48395 -1.2359265e-17 -12.029164)
(322.34539 -8.2859326e-18 -12.879839)
(322.45517 -1.4610439e-17 -11.849857)
(322.29951 -3.4899348e-18 -12.825134)
(322.38494 -1.7628018e-17 -11.646822)
(322.27467 -1.1753285e-17 -12.597592)
(322.22024 3.1809142e-17 -11.418775)
(322.14137 -5.0552532e-18 -12.438741)
(321.93063 4.5684717e-17 -11.153113)
(321.92763 2.4002843e-17 -12.180849)
(321.45625 1.0957873e-17 -10.84081)
(321.54394 2.8188052e-19 -11.902678)
(320.7541 1.3161558e-17 -10.462373)
(320.962 -1.2044786e-17 -11.527219)
(319.7958 -3.5556847e-17 -9.9948212)
(320.12731 3.9589513e-17 -11.059283)
(318.59687 -3.1902069e-17 -9.4089363)
(319.03985 -2.3242075e-17 -10.451921)
(317.21389 6.2729178e-17 -8.6756131)
(317.73079 2.6387025e-17 -9.6882941)
(315.72132 2.8203459e-17 -7.7787286)
(316.29377 9.687998e-17 -8.7560843)
(314.19325 -1.3458769e-17 -6.7451626)
(314.78257 -1.6572581e-17 -7.6707963)
(312.69847 3.053567e-17 -5.6328278)
(313.27672 1.3511916e-17 -6.4924699)
(311.35102 -7.6089861e-17 -4.5423097)
(311.82718 8.8630191e-17 -5.2359512)
(310.18545 -7.1005895e-17 -3.6057862)
(310.62839 -1.5645357e-17 -4.1673825)
(309.19199 -1.4205525e-17 -2.2830145)
(309.48633 2.6271675e-17 -3.4528983)
(308.25009 -1.1097122e-16 -1.159751)
(308.29721 -2.9921338e-17 -2.5913529)
(307.40091 -7.8596826e-17 -0.86558972)
(307.53445 -7.6811874e-17 -1.3938205)
(306.88061 -1.2381247e-16 -0.73029332)
(307.22174 -1.9696156e-16 -0.19385354)
(306.91872 -1.8844989e-16 0.33498927)
(306.98625 1.0546484e-17 0.4158021)
(306.57094 -5.744231e-18 0.70354199)
(306.53807 -5.1194973e-17 -0.24625905)
(305.94574 4.7179317e-17 0.43906643)
(305.47902 5.7947964e-17 -1.3007745)
(305.3395 -2.2263396e-16 -0.52428836)
(305.06296 1.4286418e-17 -1.5852756)
(304.95421 -4.3491261e-16 -1.0590597)
(304.98279 -9.4815763e-17 -1.2592672)
(304.86552 -2.8782022e-16 -0.73656373)
(304.94346 -2.7105629e-16 -0.72730952)
(304.82335 -3.3962048e-17 -0.37515116)
(304.90749 -1.9360111e-16 -0.27801186)
(304.80438 7.2028834e-17 -0.12887194)
(304.85839 8.4549977e-17 -0.05776267)
(304.79295 -9.2799988e-18 -0.00040868448)
(304.81818 -3.1272076e-17 0.034556743)
(304.78631 -4.9886659e-17 0.05585327)
(304.79567 -1.3966763e-16 0.068342875)
(304.78277 -8.5464137e-17 0.077237967)
(304.78552 -1.8926998e-18 0.079376836)
(304.78152 -6.7848352e-17 0.082538425)
(211.34922 5.7876561e-20 -9.0330748)
(196.70176 -2.6785449e-19 -9.0607636)
(238.84885 4.2225856e-19 -10.260996)
(229.39392 -1.0220631e-16 -10.239293)
(259.20525 -6.240842e-17 -11.206534)
(250.9018 8.2784005e-17 -11.31263)
(278.11808 -7.3989523e-17 -12.120455)
(269.97252 3.9952757e-18 -12.260583)
(297.33922 9.5715992e-17 -13.087244)
(288.79062 -9.9630467e-19 -13.234777)
(313.78271 7.3858455e-17 -13.992044)
(308.64073 -4.3635118e-18 -14.281889)
(321.81523 -4.7636413e-17 -14.394654)
(320.57454 1.0704736e-18 -15.18743)
(322.69854 2.8397695e-17 -14.411098)
(323.12553 0 -14.840923)
(322.3767 3.262476e-17 -14.366119)
(321.80977 3.0859971e-17 -15.385385)
(322.52515 -2.1418886e-17 -14.342202)
(322.68947 2.5176453e-17 -14.651023)
(322.35706 -2.1572728e-17 -14.300866)
(321.99204 -4.3670744e-17 -15.420748)
(322.42986 2.4678434e-18 -14.276639)
(322.50802 2.2351718e-18 -14.590843)
(322.36481 -3.8989975e-21 -14.228884)
(322.08117 -3.8758041e-18 -15.326675)
(322.4095 -4.6847893e-21 -14.17819)
(322.37757 -3.2457753e-18 -14.601853)
(322.36632 0 -14.119493)
(322.12983 2.1640909e-17 -15.143972)
(322.40678 -1.6659378e-17 -14.058759)
(322.30932 -2.6993469e-17 -14.6219)
(322.395 -9.0035759e-18 -13.987599)
(322.17189 -2.5674551e-17 -14.941862)
(322.42239 2.2595769e-17 -13.903212)
(322.28277 1.2055654e-17 -14.605489)
(322.42383 1.1180089e-17 -13.805519)
(322.22365 2.0639886e-17 -14.732771)
(322.43788 0 -13.688871)
(322.28695 -8.735999e-18 -14.511641)
(322.4085 0 -13.555597)
(322.24456 -1.4776378e-17 -14.502112)
(322.33779 0 -13.392102)
(322.22023 -1.2384041e-17 -14.31936)
(322.17368 -1.5169583e-17 -13.19114)
(322.08878 0 -14.19371)
(321.88456 -1.8422724e-17 -12.930837)
(321.87417 -1.6629594e-17 -13.954877)
(321.40995 -2.1155363e-17 -12.591615)
(321.48985 1.4523358e-17 -13.667194)
(320.70469 9.3842098e-18 -12.143498)
(320.90503 -3.5117153e-17 -13.245241)
(319.73871 5.7378304e-17 -11.558107)
(320.06525 -1.1359794e-17 -12.683039)
(318.52791 2.9465084e-17 -10.810188)
(318.96978 7.3690071e-18 -11.932342)
(317.12493 5.3420819e-17 -9.8868326)
(317.65672 2.6469342e-17 -10.985675)
(315.60917 6.3647498e-17 -8.7927453)
(316.20454 -1.3391709e-16 -9.8550996)
(314.072 7.0143031e-18 -7.569336)
(314.68406 1.0673379e-16 -8.5761549)
(312.58795 6.3470547e-17 -6.2831821)
(313.17823 -2.7871669e-17 -7.2126341)
(311.25667 1.5904098e-16 -5.0581922)
(311.74626 -1.8603269e-18 -5.791572)
(310.08287 7.6276384e-17 -4.0280661)
(310.56865 5.0946192e-17 -4.6371554)
(309.13531 1.8212869e-17 -2.5251461)
(309.35494 -2.0280879e-16 -3.8490823)
(308.14392 1.1621534e-17 -1.6045311)
(308.27073 2.0383028e-17 -2.8510185)
(307.37624 -1.8149487e-16 -1.0060541)
(307.58298 -3.0974703e-17 -1.5126712)
(307.04261 -8.3450313e-17 -0.35224115)
(307.28187 1.9993551e-16 -0.23617905)
(306.86875 1.5330083e-16 0.19430334)
(306.98954 1.548998e-16 0.26731211)
(306.47956 1.5977295e-19 0.51772988)
(306.34319 -1.2929548e-17 -0.51828263)
(305.81108 1.2914649e-17 -0.0057825608)
(305.40349 -4.86022e-16 -1.5078632)
(305.29799 1.5345455e-16 -0.69079834)
(305.05811 5.7402271e-17 -1.6719235)
(304.95427 8.9255649e-17 -1.0601866)
(304.98655 1.1609383e-16 -1.2718071)
(304.86429 -1.9029754e-16 -0.70938064)
(304.93951 1.695931e-16 -0.71288102)
(304.82274 -1.0845714e-16 -0.36204667)
(304.90095 8.9827424e-17 -0.26951737)
(304.80304 -9.4685326e-18 -0.12498554)
(304.85332 -1.4140633e-16 -0.054690478)
(304.79205 -1.4959877e-16 -0.00049696702)
(304.81588 -2.0984327e-16 0.035431698)
(304.78603 -1.065662e-16 0.055363543)
(304.79486 1.0570774e-17 0.068555049)
(304.78271 2.3344539e-17 0.07705892)
(304.78531 5.760143e-17 0.079420197)
(304.78152 1.2011432e-16 0.082545459)
(212.00412 -9.2401509e-17 -9.9064466)
(197.09544 -1.4531217e-16 -9.8905573)
(239.66092 -3.6105683e-17 -11.241467)
(230.03979 -9.935526e-17 -11.203587)
(260.12356 1.5372405e-16 -12.272931)
(251.72104 -3.5980254e-18 -12.37649)
(279.15018 7.565674e-17 -13.27027)
(270.93412 1.4100966e-16 -13.409688)
(298.52343 -9.8456066e-17 -14.333128)
(289.90063 6.0738502e-17 -14.479511)
(314.60352 -7.585739e-17 -15.296906)
(309.97605 -2.1157515e-16 -15.622291)
(321.89893 4.7676579e-17 -15.701169)
(320.81288 1.3625545e-16 -16.542922)
(322.59073 0 -15.737912)
(323.13299 -3.904863e-17 -16.154385)
(322.26723 2.403081e-17 -15.70875)
(321.72995 0 -16.766252)
(322.42959 8.8200945e-18 -15.709824)
(322.65606 -1.0725041e-18 -15.986134)
(322.29407 -2.4014325e-17 -15.681774)
(321.90134 8.90499e-19 -16.833272)
(322.37768 -3.4817602e-18 -15.677182)
(322.48065 0 -15.959037)
(322.27379 -7.0877513e-18 -15.643317)
(321.99794 8.0450029e-18 -16.753857)
(322.32009 1.5942184e-17 -15.617476)
(322.31586 -9.7411446e-18 -16.016732)
(322.27287 -8.5654336e-19 -15.58434)
(322.0625 2.1153859e-17 -16.608507)
(322.30369 -3.5912671e-17 -15.550369)
(322.25131 -1.7218076e-17 -16.096088)
(322.28948 -8.1334017e-18 -15.515051)
(322.12051 1.5651088e-17 -16.452915)
(322.31956 9.4644599e-18 -15.465765)
(322.24035 -2.5529801e-17 -16.145534)
(322.31183 3.5880003e-18 -15.409305)
(322.18386 -2.1739464e-17 -16.312511)
(322.31538 -2.2703975e-17 -15.336755)
(322.24538 -2.6426779e-17 -16.135615)
(322.27541 -2.7114986e-17 -15.247248)
(322.20275 1.5418197e-17 -16.168969)
(322.19267 -1.3434233e-17 -15.12227)
(322.1729 1.2848637e-17 -16.029564)
(322.01644 0 -14.947943)
(322.03522 -4.1844271e-17 -15.936122)
(321.71503 1.2989154e-17 -14.693986)
(321.80983 3.5004591e-17 -15.716227)
(321.22948 5.216612e-18 -14.329618)
(321.4131 1.4262906e-17 -15.41971)
(320.51515 -5.7614353e-17 -13.814853)
(320.81333 -2.3975824e-17 -14.952737)
(319.54248 -6.2221059e-17 -13.115332)
(319.95803 -3.9204908e-17 -14.298263)
(318.32868 2.6539367e-18 -12.207226)
(318.84744 -8.3984362e-18 -13.406829)
(316.94157 -1.4302036e-16 -11.092374)
(317.51898 2.7122409e-17 -12.279679)
(315.45873 -1.1457871e-16 -9.8042898)
(316.05816 -9.6080725e-17 -10.951346)
(313.94806 8.5426994e-17 -8.392866)
(314.53688 8.814186e-17 -9.4765076)
(312.47686 -9.5116043e-17 -6.9359807)
(313.04097 -1.393932e-17 -7.925533)
(311.16461 -1.1425711e-16 -5.5672866)
(311.63285 -1.0000806e-16 -6.3457947)
(310.02348 -1.9985269e-16 -4.3359261)
(310.46685 -8.6087523e-18 -5.1055155)
(309.066 -2.2417855e-16 -2.8331366)
(309.22486 1.689398e-17 -4.2268283)
(308.10761 -1.380994e-17 -1.9854676)
(308.25867 2.0797832e-17 -3.0856249)
(307.3346 3.2537185e-16 -1.4879539)
(307.65352 -1.5488609e-17 -1.6272839)
(307.18239 4.4202104e-16 -0.13923268)
(307.28129 1.8333227e-16 -0.29342327)
(306.77075 9.2926614e-18 0.023563843)
(307.02856 1.7369465e-17 0.075379816)
(306.31114 -4.4481209e-16 0.24091156)
(306.15978 -1.288935e-17 -0.79776434)
(305.67899 -5.152758e-16 -0.35042086)
(305.3326 -1.7320048e-16 -1.7013492)
(305.25178 3.1111085e-17 -0.85157956)
(305.04231 2.8637417e-17 -1.7456394)
(304.95125 1.9097413e-16 -1.061739)
(304.98185 3.2698665e-16 -1.2819744)
(304.86151 4.5461863e-16 -0.69118526)
(304.93355 2.4743414e-16 -0.69786543)
(304.81943 7.9046004e-17 -0.35307935)
(304.89458 1.9295467e-16 -0.26096746)
(304.8014 -3.3628513e-16 -0.12206825)
(304.84865 -1.5889735e-16 -0.051389606)
(304.79123 -7.2960314e-17 -0.00029356758)
(304.81377 -1.8641885e-16 0.036426092)
(304.78571 1.7096023e-16 0.05509232)
(304.79411 1.5817141e-16 0.068814982)
(304.78263 1.4903516e-16 0.076906098)
(304.78511 -6.9599634e-18 0.079477417)
(304.78152 9.0008486e-17 0.08255529)
(212.29108 -1.5557532e-16 -10.80736)
(197.35178 7.4002259e-18 -10.733162)
(240.24213 -7.5028187e-17 -12.279417)
(230.60469 -1.0696239e-16 -12.18926)
(260.91687 -2.7222267e-17 -13.410666)
(252.47613 3.6015772e-18 -13.469712)
(280.12617 1.3267194e-16 -14.502213)
(271.88449 -4.2268154e-18 -14.596572)
(299.68966 -2.8583043e-17 -15.662576)
(291.02158 1.2587492e-16 -15.769772)
(315.37603 -3.1481681e-17 -16.678522)
(311.30795 -1.0777726e-16 -17.006038)
(321.99903 6.5199669e-17 -17.069825)
(320.98207 4.6441756e-17 -17.931459)
(322.56393 -4.2093746e-17 -17.102539)
(323.12642 -3.8191174e-17 -17.493948)
(322.19836 -2.4437851e-17 -17.081636)
(321.68945 6.6365844e-17 -18.170098)
(322.35302 -8.9708028e-18 -17.092531)
(322.65631 -5.4175641e-17 -17.334606)
(322.19787 2.4421798e-17 -17.081548)
(321.85771 2.2123185e-17 -18.25364)
(322.28875 1.0624848e-17 -17.074674)
(322.43112 -4.8092233e-18 -17.334415)
(322.15259 6.8525666e-18 -17.064019)
(321.95716 3.5671938e-17 -18.18959)
(322.19332 -7.101791e-18 -17.058321)
(322.27774 3.6023809e-19 -17.436384)
(322.13897 8.2293909e-18 -17.05054)
(322.02168 -3.3475766e-17 -18.074623)
(322.16453 3.055172e-17 -17.039959)
(322.20928 8.9628644e-18 -17.572096)
(322.14306 1.9663505e-18 -17.028465)
(322.07675 6.8737976e-18 -17.964353)
(322.17112 -5.6368152e-17 -17.013203)
(322.18901 9.9057597e-19 -17.686207)
(322.17289 -5.0722287e-17 -16.998152)
(322.13094 -4.2348021e-17 -17.890327)
(322.18386 7.4328827e-18 -16.969369)
(322.18519 9.7066058e-18 -17.754958)
(322.14836 5.4778547e-17 -16.922522)
(322.13597 -1.0924309e-18 -17.827116)
(322.06554 -1.036447e-17 -16.835221)
(322.09358 1.1819487e-17 -17.727768)
(321.88565 -1.4127919e-17 -16.68727)
(321.94191 1.642016e-18 -17.663377)
(321.57717 3.8066505e-17 -16.439861)
(321.69737 6.1292752e-17 -17.460001)
(321.0836 -1.1008777e-17 -16.051507)
(321.27982 -5.9568961e-17 -17.152938)
(320.36224 -4.4934061e-18 -15.471921)
(320.65766 9.9765435e-17 -16.640119)
(319.38597 1.0931703e-17 -14.660785)
(319.78183 8.223046e-17 -15.893503)
(318.17095 1.2392283e-17 -13.596797)
(318.65487 1.7200134e-17 -14.862733)
(316.77681 8.5180637e-17 -12.296123)
(317.31711 -1.1125813e-19 -13.558359)
(315.28492 8.6141895e-17 -10.810812)
(315.85501 2.59504e-16 -12.034826)
(313.77815 0 -9.2077311)
(314.3419 -1.4639878e-16 -10.363178)
(312.32673 -1.0101623e-17 -7.5794808)
(312.86487 0 -8.6239318)
(311.03696 -4.706479e-18 -6.0664832)
(311.4873 2.3319866e-19 -6.8946792)
(309.95014 2.031754e-16 -4.5745689)
(310.31876 -2.8533548e-16 -5.5620662)
(308.98001 2.5954638e-16 -3.1730989)
(309.10857 -3.478307e-18 -4.5781667)
(308.07767 2.4138205e-17 -2.2925232)
(308.24729 2.0659338e-17 -3.2971307)
(307.35702 -1.7824588e-16 -1.5658761)
(307.70049 2.5174316e-16 -1.7401347)
(307.16279 -2.2082523e-16 -0.24445438)
(307.26736 -5.7368231e-16 -0.36541852)
(306.69557 0 -0.15748333)
(306.99419 0 -0.15594616)
(306.19401 2.7611227e-16 0.027069758)
(305.98338 4.0835635e-16 -1.0801457)
(305.57564 3.3438265e-16 -0.64212711)
(305.26713 3.2106558e-16 -1.8714111)
(305.19305 2.9711729e-16 -1.0157085)
(305.01835 2.0060004e-20 -1.8152759)
(304.94168 3.925045e-16 -1.0623308)
(304.97129 2.163685e-17 -1.288564)
(304.85545 -8.5983379e-18 -0.67702884)
(304.92598 -5.0720397e-16 -0.68119318)
(304.81632 -7.3550178e-18 -0.34458778)
(304.88865 1.1218396e-17 -0.25188734)
(304.79977 -2.7314116e-18 -0.11951121)
(304.84442 -2.476529e-17 -0.047714582)
(304.79055 6.8165882e-18 8.1956986e-05)
(304.81183 5.9341455e-16 0.037594472)
(304.78546 -3.0727851e-18 0.05491621)
(304.79341 0 0.069133863)
(304.78257 -7.8390819e-17 0.07674958)
(304.78492 -3.4763435e-18 0.079549409)
(304.78151 -8.4380919e-17 0.082567445)
(212.8264 6.3521976e-17 -11.713421)
(197.75402 -6.3626296e-18 -11.607859)
(240.91926 -3.8741197e-17 -13.312159)
(231.25766 -1.0439235e-16 -13.206641)
(261.74124 2.6665062e-17 -14.53973)
(253.29824 8.5416471e-17 -14.595692)
(281.09121 -2.0969258e-17 -15.729078)
(272.88882 -1.4682027e-16 -15.816891)
(300.83556 6.6691047e-17 -16.992487)
(292.20259 1.9558202e-16 -17.097367)
(316.07813 -4.3677663e-17 -18.057551)
(312.65594 -1.1448709e-16 -18.41921)
(321.94655 -4.7949926e-17 -18.432784)
(321.10899 -4.6481906e-17 -19.340354)
(322.41559 5.9592754e-17 -18.465325)
(323.08328 8.090257e-17 -18.85134)
(322.08968 4.6745364e-17 -18.454428)
(321.64358 1.4888434e-18 -19.594198)
(322.25396 -2.9774901e-17 -18.472439)
(322.62176 5.3943581e-17 -18.694733)
(322.06828 -4.3211233e-18 -18.472675)
(321.81281 -9.3913499e-17 -19.684186)
(322.15434 1.6475863e-17 -18.476545)
(322.36501 7.3591187e-17 -18.720991)
(322.0757 3.2141875e-17 -18.485728)
(321.90968 -9.0502392e-18 -19.639015)
(322.12831 -2.27492e-17 -18.499961)
(322.23527 2.0286111e-17 -18.867144)
(322.0839 -3.6152378e-17 -18.515117)
(321.97417 -2.1364184e-17 -19.547962)
(322.11945 -1.4028437e-17 -18.532357)
(322.16207 0 -19.055681)
(322.10348 6.4012729e-18 -18.55435)
(322.02713 6.338166e-19 -19.482777)
(322.13066 1.8258308e-17 -18.575245)
(322.13442 1.2208673e-17 -19.23463)
(322.1247 1.2526005e-17 -18.596997)
(322.07334 3.3596897e-17 -19.472368)
(322.12374 2.2483002e-18 -18.606262)
(322.11817 8.0220468e-18 -19.375163)
(322.07366 -4.4286939e-17 -18.596564)
(322.05906 -1.4376389e-17 -19.481366)
(321.97176 2.4478077e-17 -18.541756)
(321.9995 1.3464419e-17 -19.417667)
(321.76911 7.0485768e-17 -18.415505)
(321.82767 4.1884757e-17 -19.377603)
(321.43382 -2.3976357e-17 -18.170633)
(321.55635 -4.5957903e-17 -19.186155)
(320.91155 3.5100915e-17 -17.75503)
(321.10916 6.2644395e-17 -18.864201)
(320.16195 1.8665834e-16 -17.108359)
(320.45566 -9.1982293e-17 -18.301823)
(319.16171 9.4400515e-17 -16.184254)
(319.55191 -1.2480505e-17 -17.460632)
(317.93178 6.4834476e-18 -14.96432)
(318.40421 -1.2182051e-16 -16.289872)
(316.53662 1.4703768e-16 -13.478675)
(317.05676 -1.3623271e-17 -14.809366)
(315.05654 6.9357992e-17 -11.797677)
(315.59846 1.8014563e-16 -13.092586)
(313.56966 -1.6091559e-16 -10.004483)
(314.10119 3.343502e-18 -11.225451)
(312.14636 1.0209652e-17 -8.2079054)
(312.65193 0 -9.3010142)
(310.87864 -2.4846496e-16 -6.5543695)
(311.3111 1.137866e-17 -7.4333966)
(309.83529 -5.198564e-16 -4.8864024)
(310.1396 -2.9195765e-16 -5.9991954)
(308.88609 -2.4319572e-16 -3.5322852)
(308.99957 -1.0582407e-17 -4.8981004)
(308.06025 2.2308993e-16 -2.537705)
(308.22278 1.0498495e-17 -3.488102)
(307.43133 -5.3515406e-17 -1.5631643)
(307.71399 1.3053958e-17 -1.854141)
(307.15126 -4.1720331e-16 -0.36469059)
(307.24991 4.5641929e-18 -0.46277625)
(306.67083 3.6149466e-16 -0.091810432)
(306.88374 2.7335941e-16 -0.40769262)
(306.09524 4.5495677e-16 -0.10717247)
(305.83379 -1.5354928e-17 -1.3566845)
(305.48881 2.3583233e-17 -0.85777175)
(305.20488 9.7153539e-18 -2.0197015)
(305.12136 -2.793776e-16 -1.2086364)
(304.99471 1.43969e-17 -1.8775223)
(304.92878 -8.1909618e-16 -1.0635121)
(304.95558 -3.3757073e-16 -1.291444)
(304.84757 -5.4722223e-16 -0.66715702)
(304.91747 -1.0228455e-17 -0.66264496)
(304.81323 -4.0448638e-18 -0.33491302)
(304.88283 1.126199e-17 -0.2423189)
(304.79792 5.0555777e-16 -0.11697541)
(304.84074 -1.6541961e-17 -0.043751482)
(304.78977 6.5575072e-16 0.00047972482)
(304.81006 2.0816728e-16 0.038920638)
(304.78518 0 0.054750861)
(304.79276 -8.8705357e-18 0.069507869)
(304.7825 0 0.076583821)
(304.78474 6.6241665e-18 0.079635854)
(304.7815 0 0.082581919)
(213.09608 -1.6293054e-16 -12.653369)
(198.01377 -1.4863678e-16 -12.49142)
(241.49842 2.1465134e-18 -14.396956)
(231.78541 1.1218632e-16 -14.232953)
(262.55264 -6.5993457e-17 -15.732282)
(254.02447 -8.9761557e-17 -15.73579)
(282.13042 3.8079364e-17 -17.020633)
(273.81732 -1.4995008e-16 -17.051065)
(302.06367 4.2734119e-17 -18.385911)
(293.35059 1.9159841e-16 -18.447176)
(316.83641 -1.2253076e-16 -19.486838)
(313.92698 -1.0853777e-16 -19.846195)
(321.99481 6.9460624e-17 -19.836265)
(321.14986 4.628806e-17 -20.7588)
(322.39102 3.0341315e-17 -19.871466)
(323.04462 1.7892301e-18 -20.218134)
(322.04866 4.4161541e-18 -19.859406)
(321.56957 -3.1802875e-17 -21.033258)
(322.21616 2.8635519e-18 -19.880833)
(322.57681 8.2648944e-17 -20.070084)
(322.03924 -3.0974646e-17 -19.885945)
(321.75221 -9.1776877e-17 -21.13564)
(322.12814 5.5150035e-17 -19.912642)
(322.33005 8.150186e-17 -20.127014)
(322.0308 -2.2947385e-17 -19.932971)
(321.85808 -6.8731197e-18 -21.106081)
(322.07948 2.494531e-17 -19.964008)
(322.1907 -5.6097541e-17 -20.317193)
(322.02991 1.22796e-17 -19.999313)
(321.92509 2.2645065e-17 -21.038553)
(322.06059 1.4292814e-17 -20.040883)
(322.11155 0 -20.556436)
(322.04102 5.3738406e-18 -20.090497)
(321.97352 -6.2605725e-19 -21.014028)
(322.06313 2.5478874e-17 -20.141865)
(322.07385 -2.6444677e-17 -20.793446)
(322.05076 3.1293383e-17 -20.196936)
(322.00561 9.6021458e-18 -21.060072)
(322.03933 -6.3832464e-18 -20.240421)
(322.03635 -1.8250202e-17 -20.99753)
(321.97487 3.9884943e-17 -20.263576)
(321.96239 4.6764814e-17 -21.133011)
(321.85248 2.8101994e-17 -20.236565)
(321.87987 2.5386756e-17 -21.100097)
(321.62392 -6.4791498e-17 -20.126903)
(321.68113 1.114991e-17 -21.078603)
(321.25721 2.9576035e-17 -19.879224)
(321.37537 3.2078827e-18 -20.892711)
(320.701 -4.8500387e-17 -19.431207)
(320.89043 4.9850647e-17 -20.549054)
(319.91877 -2.9518769e-16 -18.713144)
(320.19806 7.1047865e-18 -19.930486)
(318.89272 -2.1532641e-16 -17.673524)
(319.26095 -1.6805015e-16 -18.989434)
(317.64763 -1.5184327e-16 -16.297622)
(318.09101 3.8664593e-18 -17.676015)
(316.25012 3.8401117e-19 -14.628732)
(316.73713 0 -16.020102)
(314.7814 1.3229324e-16 -12.754378)
(315.28902 -1.8642613e-16 -14.113177)
(313.31889 1.6280819e-16 -10.774015)
(313.81619 1.4640857e-16 -12.054048)
(311.9325 0 -8.8141219)
(312.40368 0 -9.9503956)
(310.69144 -2.9349946e-19 -7.0282477)
(311.10678 0 -7.955385)
(309.69 1.8386897e-16 -5.2247538)
(309.93936 5.989087e-16 -6.4120414)
(308.78461 2.3765777e-16 -3.8754222)
(308.89184 2.0626318e-16 -5.185111)
(308.03079 -1.9864649e-16 -2.7458725)
(308.18169 3.4892819e-16 -3.658937)
(307.47403 6.9933049e-17 -1.5364078)
(307.69714 -2.4408295e-16 -1.9682998)
(307.10704 6.6142529e-16 -0.50115686)
(307.23528 3.6405028e-16 -0.60113984)
(306.60244 -7.0147791e-17 -0.16615404)
(306.73427 -5.6916124e-16 -0.65223566)
(306.00925 -4.705323e-16 -0.22698034)
(305.68747 1.6512844e-17 -1.6176613)
(305.44198 0 -0.94049979)
(305.1363 6.1930717e-16 -2.1441271)
(305.02739 0 -1.4462758)
(304.97149 0 -1.9249264)
(304.90934 4.3459486e-16 -1.0699094)
(304.93752 0 -1.2904462)
(304.83872 5.4740172e-16 -0.65909822)
(304.9084 4.7646536e-16 -0.6422949)
(304.80994 0 -0.32531787)
(304.8771 1.1127318e-17 -0.23223264)
(304.79612 -3.4159038e-16 -0.11350276)
(304.83752 5.1908957e-16 -0.039557532)
(304.7889 -4.3697083e-16 0.00091652189)
(304.80852 -6.8781166e-18 0.040381584)
(304.78486 -3.6935532e-18 0.054585514)
(304.79217 -1.7729778e-17 0.069937728)
(304.78241 7.4078336e-18 0.07641423)
(304.78457 1.3238318e-17 0.079737897)
(304.78149 3.1392778e-16 0.082598939)
(213.5459 1.0034846e-16 -13.59264)
(198.29475 -1.5729041e-16 -13.387881)
(242.13865 3.8088149e-17 -15.467038)
(232.32472 3.3182861e-16 -15.270658)
(263.38399 -1.6709505e-16 -16.908082)
(254.77784 -1.8066684e-16 -16.89209)
(283.18502 -2.6559717e-17 -18.298481)
(274.7878 3.4697764e-18 -18.303667)
(303.281 6.7193368e-17 -19.771013)
(294.56524 6.3068317e-17 -19.82661)
(317.54505 4.4307854e-17 -20.902845)
(315.19127 -1.1761515e-16 -21.293904)
(321.98967 -1.6354141e-17 -21.229669)
(321.18383 9.8374595e-17 -22.19451)
(322.33256 -5.6300053e-17 -21.271658)
(323.02145 -8.0771659e-17 -21.598969)
(321.98491 3.5664717e-17 -21.267767)
(321.50702 2.9401851e-17 -22.490558)
(322.16082 3.8610498e-18 -21.303162)
(322.54051 3.4983576e-18 -21.463204)
(321.98241 4.4762367e-18 -21.320303)
(321.69504 4.881933e-17 -22.608174)
(322.07701 2.7848721e-17 -21.358485)
(322.28776 -3.5735012e-17 -21.552799)
(321.98361 -3.5356987e-17 -21.394838)
(321.80593 7.542233e-17 -22.590388)
(322.03449 -6.4611698e-17 -21.443605)
(322.14414 -9.6172642e-17 -21.785782)
(321.98425 1.245191e-17 -21.49982)
(321.87337 4.6790275e-17 -22.545458)
(322.01263 -1.454675e-17 -21.564179)
(322.05724 -1.9696132e-17 -22.073809)
(321.98738 -2.9653188e-17 -21.639793)
(321.91435 -1.5919381e-17 -22.558406)
(322.00077 -4.4961762e-17 -21.719348)
(322.00496 1.4303337e-17 -22.363974)
(321.97687 -3.6612921e-17 -21.803862)
(321.92847 -1.0007384e-17 -22.655802)
(321.94879 2.8387435e-17 -21.877271)
(321.94301 0 -22.62507)
(321.86319 3.4359584e-17 -21.928431)
(321.85121 7.9768882e-17 -22.785458)
(321.71279 9.9818995e-18 -21.923574)
(321.74158 4.0722854e-17 -22.778382)
(321.44997 7.862235e-17 -21.823885)
(321.51047 -4.3600313e-19 -22.769074)
(321.04283 1.8956616e-17 -21.565903)
(321.1637 -5.9107669e-17 -22.581039)
(320.44349 1.0845539e-16 -21.077554)
(320.63357 -2.0227299e-16 -22.206839)
(319.62038 1.4823017e-16 -20.280724)
(319.89517 5.926761e-18 -21.522887)
(318.56261 3.1967099e-17 -19.120091)
(318.91904 -8.2590793e-18 -20.474032)