/*--------------------------------*- C++ -*----------------------------------*\
  =========                 |
  \\      /  F ield         | OpenFOAM: The Open Source CFD Toolbox
   \\    /   O peration     | Website:  https://openfoam.org
    \\  /    A nd           | Version:  8
     \\/     M anipulation  |
\*---------------------------------------------------------------------------*/
FoamFile
{
    version     2.0;
    format      ascii;
    class       volScalarField;
    location    "0.0199971";
    object      T;
}
// * * * * * * * * * * * * * * * * * * * * * * * * * * * * * * * * * * * * * //

dimensions      [0 0 0 1 0 0 0];

internalField   nonuniform List<scalar> 
20000
(
284.66258
284.59689
284.24183
283.2957
281.17548
276.91225
271.14563
269.93709
270.51476
270.49964
270.95073
271.07502
271.48265
271.73451
272.16864
272.55754
273.09323
273.66732
274.37454
275.17955
276.14083
277.24986
278.52812
279.96818
281.56013
283.26794
285.03544
286.79418
288.47689
290.03629
291.429
292.63504
293.63405
294.40562
295.15371
295.86243
296.33939
296.44459
295.98
296.19206
297.3757
298.23534
298.42915
298.30686
298.1372
298.0558
298.02052
298.0069
298.00208
298.0005
284.22159
284.14215
283.78318
282.78709
280.58031
276.08061
270.52184
269.48723
270.05535
270.02555
270.46765
270.59055
270.99856
271.25804
271.71326
272.12615
272.68671
273.27978
274.01033
274.83626
275.81287
276.93557
278.2277
279.68546
281.30101
283.04147
284.85278
286.66332
288.39626
289.98006
291.39176
292.61037
293.61221
294.38123
295.16956
295.90461
296.22715
296.1218
295.88106
296.42794
297.62775
298.24579
298.4329
298.28699
298.13936
298.05845
298.02208
298.00759
298.00232
298.00056
283.8834
283.7846
283.38417
282.32669
280.00002
275.21583
269.98992
269.16271
269.75069
269.73576
270.19002
270.34092
270.75467
271.0303
271.49684
271.92353
272.48947
273.0927
273.82713
274.66001
275.64176
276.76995
278.06682
279.53065
281.15494
282.90873
284.73973
286.57487
288.33359
289.94622
291.38042
292.61005
293.60792
294.38084
295.2208
295.8856
296.16226
296.05234
295.83843
296.60357
297.70902
298.27708
298.44093
298.2871
298.1381
298.0586
298.02232
298.00766
298.00233
298.00057
283.87478
283.69796
283.22854
282.1179
279.66672
274.60328
269.70337
269.03614
269.64017
269.62876
270.07596
270.20778
270.64999
270.93202
271.40399
271.83833
272.41472
273.02483
273.76439
274.60347
275.58888
276.72156
278.02184
279.48981
281.11854
282.87832
284.71716
286.56228
288.33004
289.94924
291.38792
292.6194
293.6147
294.39639
295.26219
295.84535
296.04018
295.90788
295.8125
296.81347
297.82326
298.30675
298.45332
298.28428
298.13809
298.05885
298.02253
298.00776
298.00237
298.00058
283.56007
283.48273
283.03336
281.89436
279.35308
274.0087
269.516
268.95714
269.5905
269.56825
270.04435
270.1699
270.61722
270.90452
271.38054
271.81972
272.39556
273.01028
273.7518
274.59573
275.58421
276.72096
278.02409
279.49514
281.12633
282.88864
284.73004
286.57808
288.35342
289.9874
291.43536
292.66362
293.64629
294.4508
295.29352
295.79262
295.93678
295.8058
295.79154
296.99269
297.91288
298.33965
298.46868
298.2837
298.13763
298.05873
298.02253
298.00777
298.00237
298.00059
283.57382
283.41677
282.94999
281.74838
279.1049
273.46419
269.40692
268.94979
269.57373
269.54579
270.03389
270.18353
270.62189
270.91395
271.39225
271.83844
272.41958
273.04776
273.80245
274.66181
275.66323
276.81287
278.12632
279.60561
281.24181
283.00592
284.84606
286.69043
288.45952
290.0846
291.52196
292.73432
293.70303
294.5274
295.31228
295.73484
295.83883
295.71082
295.86432
297.16177
298.0077
298.37385
298.48335
298.28308
298.13719
298.0586
298.0225
298.00777
298.00238
298.00059
283.35166
283.30604
282.86282
281.6271
278.87276
272.95995
269.36315
269.00529
269.63132
269.61111
270.09862
270.24893
270.69732
270.99985
271.48702
271.94684
272.53936
273.18224
273.94794
274.82118
275.83504
276.99761
278.32176
279.80925
281.44897
283.21079
285.042
286.87175
288.62347
290.23003
291.6468
292.83375
293.78373
294.61877
295.32746
295.67946
295.76253
295.67249
296.01342
297.31215
298.10174
298.41221
298.49763
298.28263
298.13646
298.05839
298.02243
298.00776
298.00238
298.0006
283.45381
283.39987
282.92177
281.62218
278.72232
272.5546
269.4197
269.11891
269.76043
269.73808
270.22992
270.38368
270.83643
271.14787
271.64229
272.11514
272.71855
273.37733
274.15832
275.04963
276.08036
277.2603
278.59947
280.09852
281.7435
283.50212
285.32012
287.1272
288.84929
290.4232
291.80619
292.95856
293.88554
294.71524
295.34489
295.63643
295.70242
295.64606
296.18182
297.4584
298.19847
298.46194
298.50711
298.28186
298.13543
298.05799
298.02233
298.00773
298.00238
298.0006
283.46085
283.47343
282.97238
281.61105
278.56543
272.18247
269.52797
269.27539
269.92406
269.90526
270.40285
270.56407
271.02394
271.34658
271.84986
272.33714
272.9527
273.62869
274.42483
275.3349
276.38407
277.58343
278.94003
280.45283
282.10442
283.85929
285.66094
287.43937
289.12399
290.65627
291.99624
293.10677
294.00631
294.81192
295.36785
295.61741
295.66871
295.63143
296.36623
297.5983
298.29112
298.52702
298.51243
298.28038
298.13399
298.0573
298.02211
298.00769
298.00237
298.0006
283.64185
283.61098
283.09324
281.65071
278.43653
271.88647
269.6995
269.47147
270.13023
270.11088
270.61569
270.78371
271.25018
271.58442
272.09648
272.59883
273.22705
273.92104
274.73515
275.66678
276.7376
277.95965
279.33699
280.86636
282.52632
284.27738
286.06009
287.80449
289.44384
290.92539
292.21326
293.27539
294.14317
294.90528
295.39494
295.61058
295.65333
295.62695
296.56126
297.73543
298.37898
298.59392
298.51493
298.27815
298.13212
298.05635
298.02173
298.00757
298.00236
298.00061
283.70259
283.72815
283.20488
281.69415
278.28604
271.64329
269.90963
269.69566
270.36308
270.34742
270.85892
271.0353
271.50854
271.85499
272.37626
272.89427
273.53621
274.24966
275.08252
276.03707
277.13146
278.3783
279.77862
281.3265
282.99598
284.74296
286.50462
288.21089
289.79944
291.22379
292.45288
293.46119
294.29243
294.99551
295.42549
295.61088
295.64681
295.66891
296.76574
297.86975
298.46126
298.65731
298.51645
298.27511
298.12981
298.05516
298.02124
298.00742
298.00233
298.00061
283.85043
283.89939
283.35893
281.77377
278.13515
271.46234
270.18641
269.94942
270.62472
270.61152
271.12889
271.31362
271.79338
272.1526
272.68338
273.21786
273.87435
274.6083
275.46235
276.44212
277.56259
278.83661
280.26221
281.83036
283.51017
285.25233
286.99041
288.6544
290.1867
291.54773
292.71186
293.66088
294.44748
295.08455
295.45977
295.61611
295.64552
295.77252
296.97759
298.0007
298.53619
298.71514
298.51533
298.27116
298.12709
298.05378
298.02067
298.00723
298.00229
298.00061
283.98617
284.07184
283.52025
281.85875
277.95754
271.32902
270.48169
270.22291
270.90613
270.89721
271.42056
271.6147
272.10094
272.47372
273.01444
273.56639
274.2387
274.99482
275.87122
276.87759
278.02581
279.32864
280.78105
282.37044
284.06056
285.79657
287.50839
289.1264
290.59816
291.89135
292.98607
293.87123
294.60569
295.17319
295.49932
295.64107
295.66084
295.93924
297.19366
298.12947
298.6036
298.7642
298.51161
298.26637
298.12401
298.05224
298.02004
298.00702
298.00224
298.00061
284.18424
284.2766
283.71195
281.96583
277.76723
271.25567
270.77071
270.51714
271.20801
271.20253
271.73167
271.93547
272.42871
272.81568
273.36732
273.93768
274.62726
275.40664
276.30748
277.34225
278.52013
279.85347
281.33411
282.94538
284.64527
286.37313
288.05546
289.62346
291.03038
292.25152
293.27275
294.08961
294.76514
295.26387
295.54646
295.67835
295.70411
296.14119
297.40753
298.25896
298.66338
298.79988
298.50581
298.26085
298.12061
298.05059
298.01938
298.00681
298.00219
298.00061
284.35536
284.46852
283.89415
282.07509
277.54503
271.23382
271.08302
270.82639
271.52406
271.52466
272.05972
272.27464
272.77496
273.17739
273.74062
274.33086
275.03878
275.84277
276.76924
277.83359
279.04252
280.40754
281.91722
283.55028
285.25856
286.97556
288.62475
290.13874
291.47717
292.62313
293.56807
294.31327
294.92533
295.35906
295.60306
295.72963
295.76768
296.35812
297.61106
298.39206
298.72136
298.82267
298.49844
298.25469
298.11696
298.04886
298.0187
298.00659
298.00215
298.00061
284.54335
284.67548
284.08354
282.19199
277.30763
271.27136
271.40942
271.1533
271.8569
271.86417
272.40445
272.63124
273.13921
273.55797
274.13405
274.74481
275.47254
276.30225
277.25588
278.35126
279.59278
280.9907
282.53006
284.18441
285.89914
287.6019
289.21378
290.66954
291.93581
293.00374
293.86995
294.54057
295.08635
295.46189
295.67289
295.79166
295.85555
296.58282
297.80268
298.52507
298.79539
298.83581
298.48993
298.24797
298.1131
298.04707
298.01802
298.00637
298.0021
298.00061
284.7439
284.88972
284.27451
282.31093
277.0597
271.37307
271.75095
271.49445
272.20388
272.21887
272.7649
273.00489
273.52098
273.95741
274.54689
275.17951
275.92787
276.78415
277.76614
278.8937
280.16901
281.60062
283.16974
284.84415
286.56255
288.24703
289.81694
291.21015
292.40095
293.38894
294.17503
294.76931
295.24784
295.57247
295.75615
295.86486
295.9698
296.80946
297.9803
298.64797
298.88239
298.84179
298.48038
298.24068
298.10907
298.04527
298.01734
298.00617
298.00206
298.00061
284.95969
285.11345
284.46533
282.42418
276.80802
271.53624
272.10543
271.85037
272.5657
272.58974
273.14157
273.39585
273.92066
274.37529
274.97909
275.63376
276.40397
277.28798
278.29985
279.46097
280.77141
282.23747
283.83616
285.52895
287.24762
288.90916
290.43201
291.75808
292.87023
293.77686
294.48194
294.9988
295.41059
295.69089
295.85242
295.95271
296.11975
297.0377
298.14488
298.75898
298.97042
298.84282
298.46957
298.23285
298.10494
298.04347
298.01667
298.00597
298.00202
298.00061
285.18907
285.34669
284.65685
282.52832
276.56475
271.75975
272.47398
272.22163
272.94275
272.97701
273.53478
273.80413
274.33755
274.81103
275.42948
276.10736
276.90044
277.81317
278.85628
280.05215
281.39874
282.89958
284.52708
286.23576
287.95051
289.5837
291.05396
292.30816
293.33899
294.16384
294.78775
295.22707
295.57399
295.81538
295.9597
296.05671
296.29894
297.26922
298.29789
298.85705
299.05113
298.83373
298.45682
298.2246
298.10077
298.04169
298.01603
298.00578
298.00198
298.00061
285.43534
285.59271
284.84855
282.61244
276.34174
272.03094
272.85754
272.60939
273.33579
273.38087
273.94385
274.22865
274.77084
275.26364
275.89782
276.59945
277.41689
278.35969
279.43564
280.6676
282.05138
283.58719
285.24234
286.96389
288.66988
290.26878
291.68052
292.85827
293.80575
294.54869
295.09145
295.45403
295.73954
295.9464
296.07634
296.17756
296.49641
297.50498
298.44219
298.93994
299.11706
298.81828
298.44268
298.2161
298.09661
298.03996
298.01541
298.0056
298.00195
298.00061
285.69747
285.85261
285.04264
282.67027
276.1543
272.3115
273.25638
273.01243
273.7429
273.79917
274.36708
274.66815
275.21949
275.73266
276.38348
277.11023
277.95334
278.92741
280.03761
281.30677
282.72845
284.29895
285.97991
287.71047
289.40201
290.96004
292.30699
293.40429
294.26764
294.92853
295.38979
295.67764
295.90631
296.08319
296.1985
296.31107
296.69854
297.74225
298.58212
299.00753
299.16111
298.79897
298.42769
298.2075
298.09249
298.03827
298.01482
298.00544
298.00192
298.00062
285.9754
286.1268
285.23862
282.6892
276.01184
272.69069
273.66599
273.42707
274.16167
274.23053
274.80361
275.12216
275.6835
276.21796
276.88676
277.63945
278.50987
279.51661
280.66264
281.97016
283.43038
285.03503
286.73948
288.4745
290.14519
291.65521
292.93125
293.94513
294.72467
295.3021
295.68129
295.89789
296.07501
296.22471
296.32548
296.4519
296.91245
297.9726
298.72111
299.0686
299.19054
298.77722
298.41221
298.1989
298.08845
298.03664
298.01426
298.00528
298.0019
298.00062
286.26229
286.41147
285.43726
282.66001
275.91986
273.0784
274.08655
273.85378
274.59254
274.67526
275.25387
275.59093
276.16298
276.71971
277.40768
278.1876
279.08675
280.12744
281.31065
282.65748
284.15649
285.79419
287.51896
289.25295
290.89547
292.34986
293.54951
294.47849
295.1749
295.66565
295.96285
296.1129
296.24346
296.36846
296.45545
296.59585
297.1355
298.18608
298.85771
299.1331
299.20919
298.75377
298.39648
298.19035
298.08451
298.03507
298.01373
298.00514
298.00188
298.00063
286.56354
286.71261
285.646
282.58332
275.89069
273.51584
274.51941
274.29371
275.03601
275.13395
275.71799
276.07479
276.65821
277.23821
277.94665
278.75478
279.68429
280.76035
281.9822
283.36927
284.90717
286.57642
288.31766
290.04428
291.65062
293.04178
294.16077
295.00463
295.61618
296.01642
296.23501
296.32327
296.41157
296.51365
296.58775
296.74307
297.36182
298.3776
298.98547
299.21143
299.21983
298.72938
298.38063
298.18192
298.08069
298.03357
298.01322
298.005
298.00186
298.00063
286.87047
287.02144
285.86167
282.44991
275.92266
273.91961
274.96422
274.74667
275.49247
275.60668
276.19641
276.57387
277.16952
277.77368
278.50394
279.34147
280.30288
281.41562
282.6774
284.10539
285.68182
287.38034
289.13319
290.84497
292.40648
293.72735
294.76305
295.52145
296.04221
296.35159
296.49649
296.52768
296.57719
296.65836
296.72103
296.89982
297.58361
298.55019
299.10188
299.30068
299.21888
298.70451
298.36475
298.17363
298.077
298.03214
298.01275
298.00488
298.00185
298.00064
287.1995
287.35038
286.09547
282.26822
276.02691
274.3626
275.42195
275.21303
275.9622
276.09361
276.68929
277.08841
277.69719
278.32642
279.07985
279.94795
280.94298
282.09387
283.3969
284.86639
286.48066
288.20556
289.96424
291.6528
293.16065
294.4054
295.35656
296.02597
296.44926
296.67035
296.74833
296.72657
296.7408
296.80207
296.85572
297.06899
297.79988
298.70682
299.20739
299.38585
299.19674
298.67901
298.34882
298.16553
298.07345
298.03078
298.01231
298.00477
298.00184
298.00064
287.53378
287.68746
286.33575
282.03873
276.19789
274.81489
275.89087
275.69244
276.4449
276.595
277.19683
277.61857
278.24142
278.89666
279.67483
280.57486
281.60516
282.79555
284.14093
285.65218
287.30293
289.05037
290.8078
292.4639
293.90944
295.07408
295.93895
296.51084
296.83374
296.97323
296.98937
296.91759
296.90151
296.94324
296.99111
297.24522
298.0129
298.8505
299.29794
299.45829
299.16537
298.65219
298.33296
298.15768
298.07007
298.0295
298.01189
298.00466
298.00183
298.00065
287.88285
288.03767
286.58182
281.77197
276.41489
275.28711
276.3735
276.18603
276.94114
277.11104
277.71913
278.16453
278.80256
279.48484
280.28939
281.2227
282.29005
283.5214
284.91018
286.46322
288.14862
289.91374
291.66179
293.27565
294.65137
295.73355
296.50636
296.97209
297.1958
297.26564
297.21854
297.09986
297.0588
297.08224
297.12801
297.42217
298.22447
298.98316
299.37047
299.50804
299.12832
298.6247
298.31738
298.15012
298.06685
298.02829
298.0115
298.00457
298.00182
298.00066
288.24584
288.40078
286.83055
281.48309
276.71491
275.77245
276.8677
276.69259
277.45029
277.64148
278.25647
278.72656
279.38107
280.09149
280.9242
281.89229
282.99838
284.27198
285.70499
287.29935
289.0166
290.79323
292.5225
294.08431
295.38435
296.38141
297.05111
297.40646
297.53948
297.54435
297.4343
297.27367
297.20975
297.21904
297.26663
297.60235
298.43261
299.10707
299.42893
299.5431
299.08816
298.59715
298.30222
298.14289
298.06379
298.02715
298.01114
298.00448
298.00182
298.00067
288.62233
288.77298
287.07196
281.18519
277.07293
276.27155
277.37382
277.21296
277.9731
278.18704
278.80935
279.30517
279.97754
280.71732
281.57998
282.58434
283.73094
285.04817
286.52604
288.16085
289.90624
291.68696
293.38717
294.88782
296.10822
297.01313
297.569
297.81442
297.86959
297.80731
297.6372
297.43933
297.35454
297.35406
297.40948
297.78938
298.63012
299.22405
299.48153
299.56645
299.04622
298.57
298.28759
298.13599
298.0609
298.02608
298.01081
298.00441
298.00182
298.00068
289.00467
289.15325
287.2993
280.89917
277.4897
276.78514
277.89278
277.74815
278.51002
278.74795
279.37815
279.90087
280.59267
281.36306
282.25757
283.29975
284.4886
285.85064
287.37368
289.0472
290.8157
292.5915
294.25194
295.68344
296.82092
297.62066
298.05626
298.20088
298.18283
298.05334
297.82619
297.59561
297.4932
297.48671
297.55707
297.98398
298.80988
299.33456
299.5412
299.58142
299.00353
298.54356
298.27356
298.12943
298.05817
298.02508
298.01049
298.00434
298.00182
298.0007
289.39978
289.53783
287.5057
280.6461
277.9646
277.31257
278.42494
278.29737
279.06115
279.32436
279.9636
280.51438
281.22741
282.02959
282.9578
284.03947
285.27237
286.68038
288.24849
289.95822
291.7434
293.5042
295.11426
296.47029
297.51845
298.19881
298.51297
298.57089
298.47733
298.28281
298.00166
297.74291
297.62623
297.61672
297.70683
298.18095
298.97184
299.4393
299.61509
299.5873
298.96128
298.51804
298.26014
298.1232
298.0556
298.02414
298.0102
298.00428
298.00183
298.00071
289.8046
289.93436
287.68062
280.46378
278.49137
277.8537
278.96905
278.86094
279.62681
279.91739
280.56671
281.14668
281.88249
282.71776
283.6817
284.80471
286.08335
287.53816
289.15058
290.89265
292.68648
294.42106
295.97105
297.24655
298.19214
298.74332
298.94462
298.92064
298.7524
298.49531
298.16278
297.88064
297.75344
297.74297
297.8516
298.37478
299.12026
299.53911
299.6913
299.56191
298.92083
298.49345
298.2473
298.1173
298.05318
298.02326
298.00993
298.00422
298.00183
298.00072
290.21216
290.33991
287.80991
280.34192
279.01526
278.40853
279.52662
279.44125
280.20871
280.52818
281.18836
281.79832
282.55869
283.42851
284.43052
285.59681
286.92278
288.42492
290.0801
291.84939
293.64236
295.33926
296.82057
298.00993
298.8351
299.25317
299.35646
299.24844
299.00841
298.6913
298.31023
298.00932
297.875
297.86464
297.99611
298.56439
299.25525
299.62586
299.75776
299.51983
298.88106
298.46955
298.23502
298.11172
298.0509
298.02244
298.00968
298.00417
298.00184
298.00074
290.61793
290.75432
287.89242
280.28369
279.56154
278.979
280.09956
280.03902
280.80761
281.15689
281.82885
282.46985
283.25696
284.16332
285.20585
286.41729
287.79181
289.34119
291.03643
292.82608
294.60715
296.25507
297.6604
298.75155
299.44257
299.73317
299.74522
299.55345
299.24497
298.87039
298.4438
298.12884
297.99083
297.98103
298.14069
298.75008
299.37661
299.69551
299.80629
299.46904
298.84097
298.44634
298.22333
298.10646
298.04877
298.02167
298.00945
298.00413
298.00186
298.00075
291.02547
291.18197
287.93718
280.30151
280.13072
279.56615
280.68812
280.65357
281.4232
281.80339
282.48876
283.16248
283.97902
284.92404
286.00942
287.26762
288.69158
290.28751
292.01892
293.82044
295.5777
297.16603
298.48881
299.46403
300.01179
300.1891
300.10899
299.83632
299.46251
299.0324
298.56507
298.24008
298.10172
298.09288
298.28279
298.92984
299.48575
299.74878
299.84073
299.41313
298.80111
298.42399
298.21226
298.10152
298.04678
298.02095
298.00924
298.0041
298.00187
298.00077
291.43152
291.62104
287.94408
280.41303
280.71715
280.16795
281.29067
281.28395
282.05585
282.46877
283.16994
283.87833
284.72713
285.71268
286.84295
288.14921
289.62298
291.2638
293.02579
294.82888
296.54998
298.06898
299.29958
300.13999
300.54502
300.62019
300.44621
300.0969
299.66087
299.17631
298.67485
298.34351
298.20867
298.20118
298.43262
299.0977
299.58431
299.79452
299.86466
299.35441
298.76211
298.40266
298.20183
298.09689
298.04491
298.02029
298.00905
298.00406
298.00189
298.00079
291.82877
292.06869
287.91138
280.62142
281.32182
280.78507
281.90771
281.93246
282.70739
283.15591
283.8751
284.61999
285.50337
286.53107
287.70795
289.0633
290.58683
292.26981
294.05517
295.84812
297.52107
298.9621
300.08429
300.77572
301.04855
301.02382
300.75783
300.33613
299.84069
299.3031
298.77421
298.44033
298.31307
298.30849
298.59087
299.24723
299.67426
299.84787
299.88142
299.29438
298.72455
298.38248
298.19205
298.09256
298.04317
298.01966
298.00887
298.00404
298.00191
298.00081
292.21641
292.51433
287.8502
280.92481
281.94418
281.42074
282.54309
282.60269
283.38168
283.86774
284.60697
285.38943
286.30943
287.38078
288.60583
290.01109
291.58349
293.30446
295.10382
296.87389
298.48701
299.84138
300.83345
301.36929
301.52567
301.39703
301.04373
300.5541
300.00206
299.41323
298.86366
298.53108
298.415
298.41539
298.75018
299.38114
299.76148
299.91024
299.89271
299.23447
298.6889
298.36353
298.18289
298.08851
298.04154
298.01909
298.0087
298.00402
298.00193
298.00083
292.59942
292.95341
287.78138
281.32566
282.58736
282.07843
283.20087
283.2982
284.08167
284.60616
285.36707
286.188
287.14674
288.26329
289.53798
290.99364
292.61322
294.36629
296.16867
297.90269
299.44498
300.69909
301.54165
301.9268
301.97298
301.74102
301.30513
300.75189
300.14567
299.50809
298.94489
298.61635
298.51261
298.52375
298.90766
299.50313
299.8426
299.97523
299.87988
299.17723
298.6555
298.34579
298.17431
298.08471
298.04002
298.01855
298.00855
298.00401
298.00196
298.00085
292.98714
293.38204
287.73141
281.79235
283.25508
282.76295
283.88319
284.02043
284.80822
285.37175
286.1563
287.01697
288.01683
289.18029
290.50595
292.0119
293.67552
295.45272
297.24538
298.93033
300.39119
301.52474
302.20373
302.45357
302.38723
302.05554
301.54235
300.92984
300.27172
299.58804
299.01869
298.69648
298.60561
298.63183
299.06193
299.61444
299.9142
300.03524
299.84502
299.12417
298.62432
298.32913
298.16626
298.08116
298.0386
298.01805
298.00842
298.004
298.00199
298.00087
293.38309
293.78851
287.71992
282.27492
283.94701
283.47406
284.58916
284.7683
285.56132
286.16518
286.97602
287.87815
288.92164
290.13363
291.51116
293.0665
294.76952
296.56088
298.33017
299.9533
301.32122
302.30953
302.82265
302.94908
302.76817
302.34199
301.75688
301.08931
300.38144
299.65416
299.08619
298.77266
298.69471
298.73767
299.21301
299.71462
299.97121
300.07607
299.79723
299.07479
298.59477
298.31339
298.15869
298.07784
298.03727
298.01759
298.00829
298.004
298.00202
298.0009
293.79648
294.15873
287.76172
282.91322
284.65644
284.20857
285.31838
285.54222
286.34244
286.98833
287.82838
288.77378
289.8633
291.12523
292.55498
294.15756
295.89319
297.68663
299.41833
300.967
302.22365
303.04733
303.40362
303.40941
303.11579
302.60076
301.94927
301.23118
300.4769
299.70637
299.14765
298.84672
298.78025
298.84377
299.35865
299.80385
300.01434
300.10369
299.74053
299.02649
298.56641
298.29848
298.15157
298.07473
298.03604
298.01716
298.00818
298.004
298.00206
298.00093
294.23022
294.4765
287.86782
283.59663
285.38818
284.96987
286.07381
286.34519
287.15418
287.84365
288.71596
289.70631
290.84402
292.15688
293.63841
295.28471
297.04401
298.82593
300.5057
301.96753
303.08859
303.73541
303.95189
303.83205
303.43141
302.83358
302.12108
301.35668
300.56064
299.74647
299.20388
298.91926
298.8638
298.96211
299.49249
299.88196
300.05065
300.12308
299.67836
298.97893
298.53917
298.28439
298.14491
298.07183
298.03489
298.01677
298.00809
298.00401
298.00209
298.00095
294.69969
294.74449
288.06298
284.30261
286.14385
285.76083
286.8576
287.17917
287.99913
288.73391
289.64136
290.67838
291.86582
293.23034
294.76217
296.44656
298.21828
299.97364
301.58696
302.94616
303.90624
304.37848
304.46235
304.21731
303.71553
303.0413
302.27332
301.46617
300.63027
299.7769
299.25545
298.99166
298.94603
299.08973
299.6092
299.95324
300.09267
300.14011
299.61219
298.93249
298.51318
298.27115
298.1387
298.06914
298.03383
298.0164
298.008
298.00402
298.00214
298.00098
295.19924
294.95113
288.3453
285.03933
286.92482
286.58367
287.67253
288.04749
288.88073
289.66169
290.60743
291.69205
292.9309
294.34687
295.92627
297.64108
299.41186
301.12525
302.65752
303.89151
304.67096
304.98343
304.93226
304.5661
303.96991
303.22584
302.40798
301.56092
300.67868
299.80154
299.30372
299.06402
299.02732
299.212
299.71366
300.01998
300.14084
300.15002
299.54346
298.88774
298.4886
298.25878
298.13293
298.06665
298.03285
298.01607
298.00793
298.00404
298.00218
298.00102
295.74503
295.11684
288.725
285.83023
287.73312
287.44246
288.52201
288.95253
289.80166
290.62976
291.61628
292.75
294.04105
295.50783
297.13006
298.86486
300.61942
302.27484
303.71073
304.79127
305.38306
305.54893
305.35994
304.87912
304.19554
303.38824
302.52608
301.64319
300.70395
299.82054
299.34987
299.13825
299.1069
299.33203
299.80972
300.08465
300.19477
300.14484
299.47396
298.84526
298.46561
298.2473
298.12758
298.06434
298.03194
298.01577
298.00787
298.00406
298.00224
298.00105
296.32754
295.22006
289.19738
286.66572
288.57227
288.33947
289.40843
289.89695
290.76448
291.64048
292.67054
293.85448
295.19837
296.7137
298.37194
300.11391
301.83578
303.41666
304.73576
305.63749
306.04893
306.07144
305.7466
305.15813
304.39462
303.53061
302.6284
301.71258
300.71598
299.83607
299.39465
299.21282
299.18395
299.44833
299.89932
300.146
300.24961
300.12646
299.4058
298.80565
298.44434
298.2367
298.12264
298.06219
298.0311
298.01549
298.00782
298.0041
298.00229
298.00109
296.97469
295.27059
289.76489
287.5492
289.44601
289.27705
290.33501
290.88227
291.77151
292.6965
293.77293
295.00833
296.4045
297.96475
299.64899
301.38277
303.05452
304.54353
305.71873
306.4245
306.67344
306.54659
306.09273
305.40433
304.56861
303.65479
302.7158
301.76076
300.71925
299.84934
299.43858
299.28496
299.25936
299.56301
299.98113
300.19952
300.30203
300.09524
299.34162
298.76934
298.42479
298.22691
298.11805
298.0602
298.03031
298.01524
298.00778
298.00414
298.00236
298.00113
297.69495
295.27738
290.42518
288.47877
290.3535
290.25567
291.3033
291.91107
292.82603
293.80143
294.92694
296.21428
297.66103
299.25946
300.95724
302.66563
304.26917
305.64716
306.64767
307.15769
307.25158
306.97592
306.40017
305.61997
304.71987
303.76319
302.79181
301.79087
300.71261
299.86224
299.48123
299.35303
299.33492
299.6758
300.05631
300.23915
300.33466
300.05509
299.28364
298.73633
298.40682
298.21784
298.11379
298.05834
298.02959
298.01501
298.00775
298.00418
298.00242
298.00118
298.49896
295.26484
291.16435
289.45373
291.29713
291.2783
292.31728
292.98742
293.93279
294.95949
296.13628
297.47492
298.96814
300.59563
302.29115
303.95541
305.47128
306.71176
307.51416
307.8433
307.77866
307.35953
306.67028
305.8067
304.8499
303.85666
302.85791
301.81081
300.69762
299.87506
299.52183
299.41966
299.41258
299.78264
300.12464
300.26968
300.35843
300.00598
299.23157
298.70581
298.3901
298.20938
298.1098
298.05662
298.02892
298.01481
298.00773
298.00424
298.0025
298.00123
299.38281
295.28097
291.98381
290.47772
292.28215
292.35102
293.38229
294.11697
295.09654
296.17555
297.40401
298.79183
300.32501
301.96863
303.64418
305.24467
306.65249
307.72387
308.31915
308.47949
308.25423
307.69947
306.90549
305.96711
304.96103
303.93558
302.90739
301.81841
300.67901
299.88972
299.56031
299.48461
299.49491
299.87609
300.18394
300.30102
300.37681
299.95197
299.18232
298.67704
298.3744
298.20146
298.10609
298.05501
298.02831
298.01463
298.00773
298.00431
298.00259
298.00128
300.32231
295.298
292.89388
291.55737
293.31757
293.47952
294.50567
295.30443
296.32253
297.45337
298.73274
300.16538
301.72874
303.37316
305.0084
306.52374
307.79803
308.67124
309.06793
309.06076
308.67858
307.9971
307.10775
306.1032
305.05529
304.00187
302.9383
301.81021
300.65981
299.90639
299.59717
299.54862
299.58404
299.95687
300.23847
300.33577
300.39338
299.89444
299.1351
298.64968
298.35962
298.19404
298.10263
298.05353
298.02775
298.01448
298.00774
298.00438
298.00268
298.00134
301.35589
295.31518
293.89137
292.69871
294.40926
294.66872
295.69371
296.55488
297.61484
298.79635
300.12361
301.59439
303.1752
304.80126
306.37519
307.78291
308.89222
309.54954
309.76408
309.58422
309.05376
308.2552
307.27981
306.21748
305.13499
304.05918
302.95921
301.78982
300.63965
299.9262
299.63578
299.61134
299.67066
300.02794
300.28938
300.3733
300.40001
299.83419
299.08976
298.62364
298.3457
298.18711
298.09942
298.05217
298.02725
298.01435
298.00777
298.00447
298.00278
298.00141
302.46122
295.37844
294.96264
293.91087
295.56401
295.9236
296.95273
297.87306
298.97645
300.20632
301.57697
303.07602
304.6578
306.24478
307.73377
309.00842
309.91905
310.363
310.40029
310.05047
309.38121
308.4759
307.42383
306.31189
305.20137
304.10829
302.97247
301.75761
300.61869
299.94675
299.67665
299.67144
299.75605
300.09162
300.33669
300.41349
300.39476
299.77249
299.04632
298.59893
298.33265
298.18066
298.09645
298.05092
298.0268
298.01425
298.00781
298.00456
298.0029
298.00148
303.62806
295.54409
296.09244
295.19695
296.79156
297.24707
298.28685
299.26302
300.40942
301.68457
303.09128
304.60576
306.16883
307.6929
309.07234
310.18173
310.86994
311.11915
310.97192
310.46133
309.66393
308.66212
307.54245
306.38896
305.25561
304.14316
302.97606
301.71516
300.59799
299.96861
299.72082
299.72788
299.83969
300.1504
300.3806
300.45491
300.38083
299.7094
299.00492
298.57563
298.32049
298.17471
298.09373
298.04979
298.0264
298.01417
298.00786
298.00468
298.00303
298.00156
304.81274
295.90247
297.28435
296.55249
298.09316
298.64235
299.69822
300.72768
301.91588
303.23112
304.66439
306.17667
307.69795
309.13421
310.37619
311.28435
311.7478
311.80896
311.47944
310.81838
309.9041
308.81615
307.63812
306.45116
305.30084
304.16768
302.97327
301.66214
300.57814
299.99092
299.76789
299.77986
299.92018
300.20451
300.41965
300.49682
300.36167
299.64559
298.96584
298.55389
298.30926
298.16926
298.09126
298.04877
298.02605
298.01411
298.00794
298.0048
298.00317
298.00165
305.94064
296.43684
298.55717
297.98308
299.47066
300.11119
301.18948
302.27028
303.49846
304.8461
306.29064
307.77985
309.23309
310.55262
311.62403
312.30423
312.56165
312.42663
311.92461
311.12481
310.10511
308.94141
307.71432
306.50115
305.33936
304.18561
302.96382
301.60038
300.56098
300.01402
299.81584
299.82685
300.00057
300.25325
300.45134
300.53843
300.33832
299.5834
298.9297
298.53394
298.29903
298.16431
298.08902
298.04784
298.02574
298.01408
298.00802
298.00494
298.00333
298.00176
306.88516
297.42107
299.91089
299.5007
300.93686
301.67156
302.77575
303.89493
305.15892
306.52655
307.96284
309.40163
310.75838
311.93196
312.79615
313.24293
313.30106
312.97238
312.3091
311.38333
310.27025
309.04195
307.77477
306.54065
305.36943
304.19842
302.94608
301.53402
300.54736
300.03952
299.86304
299.87144
300.08023
300.29662
300.47178
300.56971
300.31209
299.52468
298.89698
298.51593
298.28981
298.15984
298.08699
298.04701
298.02548
298.01407
298.00813
298.0051
298.00351
298.00187
307.67828
298.70868
301.36718
301.11925
302.50096
303.32711
304.43081
305.60695
306.89669
308.26554
309.66679
311.02691
312.25564