/*--------------------------------*- C++ -*----------------------------------*\
  =========                 |
  \\      /  F ield         | OpenFOAM: The Open Source CFD Toolbox
   \\    /   O peration     | Website:  https://openfoam.org
    \\  /    A nd           | Version:  8
     \\/     M anipulation  |
\*---------------------------------------------------------------------------*/
FoamFile
{
    version     2.0;
    format      ascii;
    class       volVectorField;
    location    "0.0199971";
    object      U;
}
// * * * * * * * * * * * * * * * * * * * * * * * * * * * * * * * * * * * * * //

dimensions      [0 1 -1 0 0 0 0];

internalField   nonuniform List<vector> 
20000
(
(222.43788 3.0411809e-16 -8.0691457)
(258.87582 0 -9.0451869)
(282.45426 -1.7705984e-16 -10.012779)
(302.64056 1.508342e-16 -10.859191)
(321.03757 7.9278582e-21 -11.667483)
(337.27456 -1.1075983e-16 -12.420132)
(345.53408 9.319157e-17 -13.083963)
(347.45372 1.9164945e-20 -12.741909)
(346.44736 -6.4419005e-17 -13.154055)
(346.83519 -7.5889034e-20 -12.441395)
(346.09665 4.5393461e-17 -13.040896)
(346.05919 -4.0117126e-17 -12.195264)
(345.34871 3.1527548e-17 -12.759575)
(344.92756 0 -11.967504)
(344.0628 2.7191052e-18 -12.350663)
(343.21924 -4.8108039e-18 -11.703292)
(342.01509 4.7351386e-19 -11.861793)
(340.62611 -6.2682032e-18 -11.355762)
(338.87225 5.8670719e-18 -11.306204)
(336.76421 -3.5966807e-17 -10.877576)
(334.19648 3.6738718e-17 -10.661485)
(331.11182 0 -10.258238)
(327.46069 1.1128393e-17 -9.9362103)
(323.20283 3.3052075e-17 -9.5290894)
(318.35853 -2.6749411e-17 -9.1424051)
(312.99021 2.2224236e-17 -8.7153004)
(307.25976 -2.2826852e-18 -8.2736466)
(301.38999 0 -7.7785537)
(295.65416 0 -7.208372)
(290.27343 -5.8300622e-17 -6.5246073)
(285.41051 -4.654483e-17 -5.720655)
(281.13363 -2.4346259e-17 -4.8471221)
(277.55799 -1.666669e-17 -3.9112933)
(274.68561 0 -3.0707565)
(271.88091 0 -2.4927583)
(269.27153 7.0212619e-17 -1.8748144)
(267.60493 1.3461315e-16 -1.0324403)
(267.42132 -1.8735868e-17 -0.13150974)
(268.0982 0 0.50630971)
(266.5459 6.642e-17 0.11923706)
(262.99315 1.4832641e-16 -0.81952611)
(260.95923 0 -1.2207864)
(260.5376 1.2607301e-16 -1.0550857)
(260.85535 1.1941991e-16 -0.63739861)
(261.14572 3.0610656e-19 -0.2466646)
(261.25595 1.1672887e-16 -0.051888979)
(261.29007 0 0.029223615)
(261.2985 0 0.058573847)
(261.29982 3.9508887e-19 0.068059951)
(261.30008 -3.9922349e-17 0.070763892)
(223.74356 -3.1120337e-16 -8.9630554)
(260.42894 0 -10.078803)
(284.2381 3.5301632e-19 -11.137699)
(304.55739 1.525897e-16 -12.040258)
(322.98957 -1.3172479e-16 -12.897824)
(339.18034 0 -13.68867)
(346.74139 1.4776923e-18 -14.350813)
(348.44753 0 -13.968315)
(347.4194 -6.74737e-17 -14.458092)
(347.81751 5.8589258e-17 -13.699978)
(347.05353 4.6070133e-17 -14.392581)
(346.99974 -4.0636326e-17 -13.525513)
(346.25756 0 -14.19503)
(345.80603 6.6357587e-18 -13.405222)
(344.89593 -4.7129516e-17 -13.875452)
(344.00694 7.8285847e-17 -13.252748)
(342.75407 -2.2913631e-17 -13.475858)
(341.31993 3.197854e-17 -13.002519)
(339.52031 -5.1273242e-18 -13.000747)
(337.37011 -1.7523778e-17 -12.611434)
(334.76733 -7.3230887e-18 -12.434953)
(331.65237 -2.4427966e-17 -12.062677)
(327.97088 -1.0391236e-17 -11.755114)
(323.67862 8.320258e-17 -11.340569)
(318.78864 5.6383742e-19 -10.91248)
(313.35786 2.3011871e-17 -10.403624)
(307.54069 4.1534996e-19 -9.8346818)
(301.56665 -7.5168067e-17 -9.1721397)
(295.73035 2.4639245e-17 -8.407786)
(290.28905 9.8411524e-17 -7.5270853)
(285.38331 -6.2641529e-17 -6.5401577)
(281.08966 4.953385e-17 -5.4992702)
(277.53149 0 -4.4115597)
(274.65403 -1.5067985e-16 -3.4773429)
(271.72379 4.6324428e-17 -2.8533198)
(269.21313 -8.8447753e-17 -2.143512)
(267.95328 -1.0719826e-16 -1.1620147)
(267.89195 -2.006451e-17 -0.15529806)
(268.23596 -2.2442256e-16 0.41734905)
(265.98945 -8.8993269e-17 -0.095944143)
(262.57538 9.9489334e-17 -1.0279436)
(260.95524 -1.1322123e-19 -1.3150678)
(260.54981 -4.1449247e-16 -1.0701911)
(260.87595 -3.1811254e-16 -0.62858255)
(261.13788 -1.5629484e-16 -0.2418)
(261.24904 1.3015394e-16 -0.050726043)
(261.28646 -2.1563412e-17 0.029302485)
(261.2969 8.1239765e-18 0.058523691)
(261.29951 -1.0571375e-16 0.068040535)
(261.30001 -3.351078e-17 0.070761483)
(224.80549 -6.2031818e-19 -9.8959222)
(261.85901 8.8540335e-19 -11.163087)
(285.83566 0 -12.316079)
(306.24861 -1.5587786e-16 -13.295267)
(324.68298 2.0213658e-18 -14.223517)
(340.75516 2.3038648e-16 -15.074879)
(347.50154 -9.4695292e-17 -15.744623)
(348.99831 0 -15.323663)
(347.91868 6.7487629e-17 -15.885148)
(348.29667 -3.4165677e-18 -15.088932)
(347.50029 -4.672231e-17 -15.87234)
(347.39252 4.8706296e-18 -14.972761)
(346.63557 0 -15.717275)
(346.15404 -9.2115456e-21 -14.910108)
(345.20749 0 -15.43365)
(344.28772 0 -14.821587)
(343.00845 -3.9060325e-17 -15.091736)
(341.5488 2.5823932e-17 -14.64991)
(339.72823 2.1544387e-17 -14.687026)
(337.55612 0 -14.335297)
(334.93463 0 -14.193079)
(331.80229 0 -13.850573)
(328.10491 0 -13.557181)
(323.79599 -3.3759161e-17 -13.13832)
(318.88592 0 -12.673944)
(313.42911 -4.5801565e-17 -12.09036)
(307.5767 7.5006532e-17 -11.400881)
(301.5604 3.0281438e-17 -10.574601)
(295.68083 2.4462005e-17 -9.6162234)
(290.20414 7.9589032e-17 -8.5360198)
(285.2752 3.1903031e-17 -7.3609476)
(280.98163 -2.4854743e-17 -6.1457446)
(277.45037 1.5688924e-16 -4.9051509)
(274.54889 1.2163464e-16 -3.889252)
(271.50833 0 -3.2054771)
(269.25648 3.5733954e-17 -2.3820633)
(268.21715 -2.6932683e-17 -1.2688094)
(268.25394 -3.2300197e-16 -0.18329538)
(268.27388 2.406715e-16 0.30377367)
(265.36673 0 -0.32927205)
(262.28504 3.0942064e-19 -1.2068236)
(260.89823 2.4530679e-17 -1.3966909)
(260.54138 2.5238641e-16 -1.0813297)
(260.87572 -1.4563467e-16 -0.61598516)
(261.13318 -1.753291e-16 -0.23434332)
(261.24507 1.4373794e-17 -0.04809224)
(261.28444 -3.2085856e-17 0.03004377)
(261.29631 -2.4889558e-16 0.058696262)
(261.29935 1.0398285e-16 0.068074386)
(261.29998 -8.3332062e-17 0.070766623)
(225.38123 0 -10.830133)
(262.74158 -2.3175468e-16 -12.240925)
(286.90499 1.8671339e-16 -13.494393)
(307.43951 1.6120385e-16 -14.560612)
(325.89811 -4.1860821e-18 -15.575996)
(341.85223 -2.3425942e-16 -16.494565)
(347.82213 9.4793607e-17 -17.179563)
(349.17235 0 -16.726703)
(348.04042 0 -17.370402)
(348.42983 5.7065349e-17 -16.528006)
(347.59878 -4.7513093e-17 -17.399159)
(347.53112 0 -16.449967)
(346.7011 -8.2472471e-18 -17.25809)
(346.20602 -6.8684964e-18 -16.432532)
(345.23486 4.5854509e-17 -17.007244)
(344.29162 -5.7014002e-17 -16.39875)
(342.98887 -1.5844596e-17 -16.705496)
(341.50895 0 -16.287289)
(339.67074 2.2001409e-17 -16.358146)
(337.47867 -1.8100127e-17 -16.041201)
(334.83926 -3.0387529e-17 -15.930721)
(331.68869 -2.5237397e-17 -15.616679)
(327.975 0 -15.337122)
(323.6506 0 -14.914901)
(318.72681 2.8536343e-17 -14.416522)
(313.25798 -2.2957638e-17 -13.76168)
(307.39552 -9.5317834e-17 -12.95589)
(301.37182 -1.5994302e-17 -11.970208)
(295.48316 2.4789423e-17 -10.820056)
(289.9948 -3.2246382e-16 -9.5404809)
(285.06508 1.6069707e-16 -8.1775943)
(280.79582 -2.5139515e-17 -6.7884537)
(277.30467 -1.5851671e-16 -5.3986429)
(274.35421 -3.0846663e-17 -4.3041469)
(271.32363 -3.5435966e-16 -3.5469322)
(269.36493 0 -2.5992346)
(268.54152 -2.7118049e-17 -1.3715322)
(268.56506 6.7013691e-16 -0.2289592)
(268.22874 3.040551e-17 0.15700386)
(264.78908 -2.2321849e-17 -0.56689231)
(262.01813 -8.332804e-16 -1.3821659)
(260.82821 7.3607061e-17 -1.4626252)
(260.51655 -5.4033477e-17 -1.0914025)
(260.87231 4.3616902e-16 -0.60381036)
(261.12777 3.2995872e-16 -0.22727748)
(261.24202 -2.5748065e-16 -0.045457164)
(261.28313 -3.2875042e-16 0.030815866)
(261.29588 2.6975792e-16 0.058893741)
(261.29925 -6.0164955e-18 0.068117912)
(261.29996 2.9312443e-16 0.070774616)
(225.68505 -3.2875241e-16 -11.79432)
(263.37928 1.8380618e-18 -13.37158)
(287.73601 -1.9045647e-16 -14.746154)
(308.40371 1.5924449e-16 -15.906966)
(326.89801 1.3917491e-16 -17.013901)
(342.68634 -2.328614e-16 -17.988824)
(347.88061 1.9935635e-16 -18.678596)
(349.21344 -8.3391852e-17 -18.172674)
(347.97524 0 -18.884714)
(348.41174 -5.803655e-17 -17.982312)
(347.50954 4.8324452e-17 -18.933895)
(347.49686 0 -17.930578)
(346.59512 2.516984e-17 -18.798306)
(346.09018 -1.3969267e-17 -17.953444)
(345.10101 0 -18.576037)
(344.14055 1.9360531e-17 -17.970929)
(342.81714 4.8434351e-17 -18.306206)
(341.31026 -5.3503149e-17 -17.907459)
(339.44252 -6.6842241e-17 -18.008572)
(337.21658 -3.7022966e-17 -17.724741)
(334.54509 6.1448819e-17 -17.642921)
(331.36264 5.0875817e-17 -17.355381)
(327.62052 -8.4333287e-17 -17.087979)
(323.27174 6.9685943e-17 -16.66193)
(318.33009 0 -16.130119)
(312.85194 -2.3824863e-17 -15.405878)
(306.99011 1.9062658e-17 -14.486696)
(300.97742 0 -13.346102)
(295.10441 2.565213e-17 -12.011072)
(289.62704 1.4302085e-16 -10.536221)
(284.72032 0 -8.9839148)
(280.50379 0 -7.4187808)
(277.07115 -2.011142e-17 -5.8875542)
(274.05812 1.5417789e-17 -4.7115348)
(271.17223 3.8097193e-16 -3.8677069)
(269.49731 3.6240429e-17 -2.7947765)
(268.82524 -2.1121861e-21 -1.4711126)
(268.7954 -3.471529e-16 -0.2873224)
(268.0548 0 -0.025935039)
(264.26603 0 -0.81121337)
(261.76975 5.3429177e-16 -1.5364229)
(260.74568 -2.459006e-17 -1.5222834)
(260.48046 6.1272109e-16 -1.0984224)
(260.86603 -1.3207752e-17 -0.59024928)
(261.1228 0 -0.21969705)
(261.23925 -1.42173e-17 -0.042473762)
(261.28203 1.0516022e-17 0.031738177)
(261.29555 0 0.059140741)
(261.29918 -5.9166589e-18 0.068173555)
(261.29995 -1.4323065e-16 0.07078469)
(225.92023 3.3732402e-16 -12.757595)
(263.91529 -2.4340464e-16 -14.488844)
(288.45092 1.9400755e-16 -15.980807)
(309.24851 -1.6492909e-16 -17.238778)
(327.77848 1.4391609e-16 -18.445533)
(343.34813 -7.5213529e-18 -19.470308)
(347.75682 -9.5172126e-17 -20.165608)
(348.96759 -1.0722751e-19 -19.610227)
(347.75621 1.4184676e-16 -20.39516)
(348.18192 -5.8909958e-17 -19.425348)
(347.27808 0 -20.452318)
(347.18335 -1.0241133e-17 -19.399604)
(346.33324 5.1299049e-17 -20.332233)
(345.81131 1.4410062e-17 -19.463319)
(344.79646 -7.0893616e-17 -20.128775)
(343.80916 0 -19.528969)
(342.45408 -3.2875453e-17 -19.897158)
(340.90582 5.4377338e-17 -19.522946)
(338.99452 -2.2835996e-17 -19.650923)
(336.7201 5.629778e-17 -19.395303)
(334.00114 -6.2374618e-17 -19.335544)
(330.77138 -2.5759809e-17 -19.068997)
(326.98617 8.5911546e-17 -18.808567)
(322.60134 5.3527994e-17 -18.374729)
(317.63528 -1.1678373e-16 -17.806882)
(312.14935 2.1606083e-16 -17.012398)
(306.29968 1.3760439e-16 -15.980962)
(300.31982 3.21924e-17 -14.688304)
(294.49583 -2.5469784e-17 -13.172295)
(289.07844 3.3112103e-16 -11.506745)
(284.24081 -2.6330172e-16 -9.7682147)
(280.11262 0 -8.030557)
(276.74905 2.0318615e-17 -6.3683984)
(273.69787 -5.1660356e-16 -5.1034969)
(271.04391 -3.8415633e-16 -4.1625034)
(269.62489 0 -2.9721836)
(269.05597 4.3902179e-16 -1.5705553)
(268.95094 -6.5601867e-16 -0.35924284)
(267.66654 0 -0.24238921)
(263.79325 7.0337344e-16 -1.0535557)
(261.51957 1.6657478e-17 -1.6715798)
(260.65336 2.4606927e-17 -1.5812372)
(260.44236 -5.7625339e-16 -1.1023355)
(260.85885 -8.5550849e-16 -0.57519728)
(261.11827 1.9251562e-17 -0.21172208)
(261.23652 -2.8267619e-17 -0.039223179)
(261.28095 1.0108348e-15 0.032789607)
(261.29522 0 0.059431108)
(261.29911 0 0.068240236)
(261.29994 0 0.07079666)
(225.98654 -3.43776e-16 -13.752184)
(264.265 1.9081487e-18 -15.653651)
(288.98199 3.0956281e-18 -17.272624)
(309.91742 -1.6823555e-16 -18.6269)
(328.49178 2.9353782e-16 -19.932051)
(343.81373 -2.4106236e-16 -20.988855)
(347.41903 -6.5659963e-18 -21.683103)
(348.63227 1.7270646e-16 -21.073259)
(347.36878 -1.3527222e-16 -21.930737)
(347.80589 1.724907e-16 -20.885252)
(346.86695 -2.0016421e-16 -21.986411)
(346.78104 1.6654296e-16 -20.882423)
(345.88406 -6.9316309e-17 -21.878903)
(345.33942 2.8928642e-17 -20.985032)
(344.29118 2.4047239e-17 -21.688329)
(343.26634 0 -21.091802)
(341.87008 3.3446628e-17 -21.485283)
(340.27411 -2.7610227e-17 -21.130691)
(338.31379 9.2177583e-17 -21.279073)
(335.98459 -3.847174e-17 -21.04759)
(333.20994 3.1544403e-17 -21.00436)
(329.9233 5.2542329e-17 -20.75356)
(326.08485 0 -20.494381)
(321.65529 -1.4360158e-16 -20.047302)
(316.66038 2.3703397e-16 -19.438609)
(311.16993 -3.8927262e-16 -18.570533)
(305.34639 -1.5886583e-16 -17.425889)
(299.42488 -2.5921888e-16 -15.983351)
(293.68475 0 -14.291445)
(288.36538 7.8304337e-19 -12.441223)
(283.63503 2.6600005e-16 -10.521438)
(279.62562 0 -8.6173483)
(276.3458 0 -6.8355488)
(273.30298 -5.8031743e-19 -5.4748952)
(270.91562 3.6284379e-16 -4.4279833)
(269.71915 1.8317962e-17 -3.132852)
(269.21762 -4.1416547e-16 -1.6735372)
(268.99559 6.5931054e-16 -0.46403818)
(267.18073 4.7536716e-16 -0.4637423)
(263.35324 -7.2735479e-16 -1.2848254)
(261.26446 0 -1.7873908)
(260.54233 0 -1.6276087)
(260.40573 0 -1.102986)
(260.8515 8.4015238e-16 -0.55849291)
(261.11445 0 -0.20329959)
(261.23407 0 -0.035726924)
(261.27987 -6.6088372e-16 0.033976714)
(261.29487 -1.5294811e-17 0.059769328)
(261.29904 1.1444209e-17 0.068319198)
(261.29993 0 0.070810615)
(225.94531 0 -14.734387)
(264.49115 2.5098419e-16 -16.791374)
(289.38164 -2.0492797e-16 -18.53224)
(310.45045 -1.7150763e-16 -19.98345)
(329.06943 1.3798724e-16 -21.3963)
(344.09244 0 -22.478419)
(346.91738 1.052597e-16 -23.177118)
(348.12102 -1.6470123e-16 -22.5145)
(346.82 6.4170747e-17 -23.454462)
(347.266 7.6204525e-18 -22.341359)
(346.29252 0 -23.526515)
(346.19437 1.058112e-17 -22.369162)
(345.2698 5.3071112e-17 -23.424054)
(344.7009 -1.4695156e-16 -22.508873)
(343.61792 2.4339189e-17 -23.248118)
(342.55369 0 -22.655647)
(341.11368 -3.3973401e-17 -23.070359)
(339.46553 -2.8195383e-17 -22.733736)
(337.44993 -7.0141438e-17 -22.897506)
(335.05815 0 -22.685715)
(332.21816 6.4733617e-17 -22.653006)
(328.86371 0 -22.411844)
(324.96035 2.232438e-17 -22.146867)
(320.4755 1.4695635e-16 -21.679148)
(315.44456 -1.3508624e-16 -21.022332)
(309.94897 3.9550872e-16 -20.074553)
(304.16021 -1.6193638e-16 -18.813165)
(298.31634 2.6210878e-16 -17.220854)
(292.68928 0 -15.357168)
(287.50303 -3.3892917e-16 -13.329066)
(282.9154 0 -11.235254)
(279.05111 0 -9.1735433)
(275.87056 0 -7.2826581)
(272.89609 1.0515538e-15 -5.822757)
(270.77191 1.1985324e-19 -4.6640572)
(269.7492 5.9084457e-16 -3.2760813)
(269.29925 -1.386734e-17 -1.7735123)
(268.96095 -2.0765366e-17 -0.60084988)
(266.61425 -1.4617988e-15 -0.6692746)
(262.92906 7.5362303e-16 -1.5001874)
(261.00878 1.0592122e-15 -1.8821497)
(260.39111 0 -1.6592501)
(260.37493 0 -1.0996159)
(260.84497 -2.6159567e-17 -0.54040035)
(261.11162 1.9102271e-17 -0.19444634)
(261.23232 8.9247719e-16 -0.032046997)
(261.27896 6.5472122e-16 0.035270595)
(261.29453 -1.5103159e-17 0.060154526)
(261.29896 1.1253394e-17 0.068411481)
(261.29992 5.4379075e-16 0.070826721)
(225.79789 -3.5417002e-16 -15.735236)
(264.60477 5.0184282e-16 -17.959564)
(289.66867 -2.0582593e-16 -19.830781)
(310.87043 1.7493619e-16 -21.37905)
(329.53763 4.7908818e-18 -22.906386)
(344.21593 -2.5347412e-16 -23.998737)
(346.28997 1.0706037e-16 -24.700927)
(347.492 -1.1159572e-17 -23.976573)
(346.14848 0 -24.998976)
(346.6009 0 -23.810979)
(345.59138 1.0371968e-16 -25.076854)
(345.48338 -8.6084333e-17 -23.866248)
(344.5242 1.0792801e-16 -24.97813)
(343.92757 -5.9698542e-17 -24.041136)
(342.80726 7.4834533e-17 -24.811823)
(341.70035 -4.1347614e-17 -24.222793)
(340.21349 -1.2245333e-19 -24.653799)
(338.5092 5.7300299e-17 -24.332662)
(336.43321 4.7805433e-17 -24.50674)
(333.97215 0 -24.310974)
(331.05827 9.9252584e-17 -24.283291)
(327.62619 8.2170047e-17 -24.045604)
(323.64744 -2.2710234e-17 -23.767255)
(319.09758 -2.6035508e-16 -23.270334)
(314.02375 -2.6073172e-16 -22.556383)
(308.52182 -3.7654411e-16 -21.520634)
(302.77485 1.4344086e-16 -20.136839)
(297.02486 1.6805741e-17 -18.393349)
(291.53481 -1.327984e-17 -16.361361)
(286.51039 3.4431548e-16 -14.162376)
(282.0951 0 -11.903071)
(278.39798 2.6885383e-17 -9.6942943)
(275.3326 2.05432e-19 -7.7031134)
(272.49029 -5.2981043e-16 -6.1451904)
(270.60805 0 -4.8742183)
(269.7152 -6.0091833e-20 -3.4036831)
(269.30474 -1.7838994e-15 -1.866793)
(268.88598 7.065092e-16 -0.76550617)
(266.01696 9.5639352e-16 -0.89087804)
(262.51692 -7.3147232e-16 -1.6973132)
(260.75788 -2.1533911e-15 -1.9655267)
(260.22471 0 -1.6777064)
(260.34842 -1.1299891e-15 -1.0906153)
(260.84006 1.3008855e-17 -0.52123411)
(261.10996 -3.7989897e-17 -0.18520723)
(261.23142 -8.7233912e-16 -0.028232603)
(261.27844 2.0260713e-17 0.036625261)
(261.29428 -1.4913159e-17 0.060570861)
(261.29889 -7.0815477e-16 0.068516951)
(261.29992 -5.3179924e-16 0.070845222)
(225.59866 0 -16.737949)
(264.65501 -2.5474508e-16 -19.125892)
(289.887 2.0655853e-16 -21.129082)
(311.21526 0 -22.775614)
(329.92824 0 -24.428573)
(344.19965 0 -25.517726)
(345.55038 -1.0911536e-16 -26.228105)
(346.7593 -9.1119368e-17 -25.441025)
(345.37264 -2.6703719e-19 -26.552159)
(345.83023 2.5263492e-16 -25.28887)
(344.78337 -1.0526482e-16 -26.637064)
(344.66268 0 -25.373236)
(343.66899 6.1025878e-20 -26.539221)
(343.04284 0 -25.581383)
(341.88396 0 -26.379271)
(340.732 -4.2285688e-17 -25.793692)
(339.19548 3.5049698e-17 -26.236526)
(337.43084 5.8536712e-17 -25.929628)
(335.28871 2.4479914e-17 -26.109909)
(332.75125 6.056983e-17 -25.926429)
(329.75494 -2.002868e-16 -25.89811)
(326.23587 -8.3043352e-17 -25.65726)
(322.17202 0 -25.357241)
(317.54841 1.5086325e-16 -24.82142)
(312.4258 -1.4617136e-18 -24.039801)
(306.91684 1.778623e-16 -22.906032)
(301.21804 2.0584783e-17 -21.392383)
(295.57603 2.8816291e-16 -19.494901)
(290.24352 1.3974301e-17 -17.297365)
(285.40556 -7.3970824e-16 -14.934611)
(281.18784 5.6932663e-16 -12.519484)
(277.67686 0 -10.1757)
(274.74288 -2.1102366e-17 -8.0910039)
(272.09088 1.6117443e-17 -6.4400868)
(270.42761 2.4732842e-17 -5.0612903)
(269.64519 -1.8117348e-15 -3.5198451)
(269.25947 1.7643411e-15 -1.9537382)
(268.72792 -2.001974e-15 -0.9562448)
(265.39787 1.53873e-17 -1.1343115)
(262.11289 0 -1.8662923)
(260.51646 1.0771015e-15 -2.0396425)
(260.05408 7.8736532e-16 -1.6845831)
(260.32959 1.1634077e-15 -1.0749232)
(260.83708 1.2962191e-17 -0.50116033)
(261.10957 1.2088837e-15 -0.17564783)
(261.23129 -1.3751642e-17 -0.024321055)
(261.27833 6.4211116e-16 0.038013112)
(261.29421 0 0.060999428)
(261.29884 2.0993401e-22 0.068628294)
(261.29991 4.0637686e-18 0.070866197)
(225.32075 0 -17.764118)
(264.63035 -2.638252e-16 -20.32776)
(290.0319 2.1737061e-16 -22.47143)
(311.48565 -5.6930186e-18 -24.215971)
(330.24089 0 -26.002059)
(344.0501 0 -27.066793)
(344.71432 6.950472e-18 -27.786846)
(345.93626 -1.1581835e-17 -26.927423)
(344.50606 1.935467e-17 -28.126251)
(344.96807 1.6092822e-17 -26.782296)
(343.88375 0 -28.210307)
(343.7494 2.2352865e-17 -26.89202)
(342.7206 -5.5828151e-17 -28.108073)
(342.06315 0 -27.129999)
(340.86436 5.169096e-17 -27.95076)
(339.66464 -2.124129e-19 -27.369066)
(338.07528 3.5600989e-17 -27.819879)
(336.24573 -5.9297713e-17 -27.525892)
(334.03175 -9.8545501e-17 -27.708266)
(331.41113 8.2244731e-17 -27.533585)
(328.32455 1.364655e-16 -27.49903)
(324.71023 1.4147025e-16 -27.248115)
(320.55298 -2.3093419e-17 -26.917667)
(315.84859 1.941128e-17 -26.33245)
(310.67319 -1.726797e-17 -25.47154)
(305.15818 -2.0821666e-16 -24.228452)
(299.51474 0 -22.576334)
(293.99394 -2.9099206e-16 -20.521164)
(288.83694 1.3658403e-17 -18.160364)
(284.20615 3.5182256e-16 -15.64094)
(280.20696 -5.5684939e-16 -13.080322)
(276.89925 -8.7517506e-16 -10.614608)
(274.11831 -7.0062883e-16 -8.44247)
(271.69532 -1.6457009e-17 -6.7049007)
(270.23287 2.480917e-17 -5.2267265)
(269.55365 1.1829146e-15 -3.6265539)
(269.1813 -8.2968622e-16 -2.0399256)
(268.41552 1.2965917e-15 -1.140166)
(264.76132 1.0276013e-15 -1.3594118)
(261.71723 -1.4709345e-15 -2.0343918)
(260.28751 -5.0507772e-17 -2.0967374)
(259.89313 -7.8617696e-16 -1.6817652)
(260.31477 1.7876335e-17 -1.0526162)
(260.83636 0 -0.48028726)
(261.11045 -2.4043145e-15 -0.16584233)
(261.23183 -8.7300979e-16 -0.020353258)
(261.27853 -7.6854341e-21 0.039412742)
(261.29426 -9.298521e-16 0.061430857)
(261.29885 2.9650834e-22 0.068740535)
(261.29991 5.0489626e-16 0.070887966)
(224.99757 0 -18.791547)
(264.56522 0 -21.530258)
(290.13463 6.8346347e-18 -23.819436)
(311.70682 5.7878316e-18 -25.662717)
(330.4902 0 -27.591789)
(343.76318 0 -28.612285)
(343.79396 2.1911902e-16 -29.350117)
(345.03353 -1.7629081e-16 -28.417914)
(343.56007 -1.9620285e-17 -29.709332)
(344.02622 -3.2686008e-17 -28.283304)
(342.90462 2.7320552e-17 -29.79134)
(342.75557 9.1010886e-17 -28.419861)
(341.6913 -3.7773303e-17 -29.683195)
(341.00061 0 -28.686653)
(339.76026 -1.0496626e-16 -29.52647)
(338.50963 -4.3786545e-17 -28.949649)
(336.86368 3.6489988e-17 -29.404871)
(334.96425 -9.071205e-17 -29.123117)
(332.67241 -2.5255842e-17 -29.30382)
(329.962 -6.2500272e-17 -29.134056)
(326.77784 -1.3805853e-16 -29.087338)
(323.06086 -2.2941392e-16 -28.818986)
(318.80315 0 -28.448782)
(314.01272 1.5705339e-16 -27.80287)
(308.7827 2.5661753e-16 -26.850109)
(303.26486 6.0695355e-16 -25.48548)
(297.68557 2.1242204e-17 -23.68557)
(292.29939 -1.7545856e-17 -21.46856)
(287.33437 1.3850308e-17 -18.946583)
(282.92865 -6.9280903e-16 -16.277677)
(279.16546 -5.8234747e-16 -13.582305)
(276.07691 8.8166125e-16 -11.007812)
(273.47501 6.8395104e-16 -8.7553706)
(271.29917 0 -6.938047)
(270.02157 1.6267987e-15 -5.3704545)
(269.42731 -1.2267094e-15 -3.7213951)
(269.05971 9.0348151e-16 -2.1303656)
(267.93367 0 -1.3233824)
(264.11188 2.5009474e-18 -1.5799806)
(261.33058 1.4480855e-15 -2.1796124)
(260.07648 1.6793377e-17 -2.1504055)
(259.74685 -2.4517577e-17 -1.6701457)
(260.30571 3.56191e-17 -1.0242656)
(260.83809 -1.2914185e-17 -0.45873712)
(261.11251 1.1950876e-15 -0.15587602)
(261.23294 8.5262714e-16 -0.016367023)
(261.27897 -2.4872486e-15 0.040806757)
(261.2944 9.0329611e-16 0.061857358)
(261.29887 6.8362485e-16 0.068850786)
(261.29991 -5.0569067e-16 0.070909508)
(224.63124 -3.7536325e-16 -19.83806)
(264.46308 0 -22.760456)
(290.20319 -6.9454693e-18 -25.199549)
(311.89031 5.9238578e-18 -27.138051)
(330.68178 0 -29.214052)
(343.31532 2.7172143e-16 -30.167767)
(342.80234 -2.2987024e-16 -30.930572)
(344.06221 0 -29.920248)
(342.5458 0 -31.306105)
(343.01516 1.6589605e-17 -29.794872)
(341.85596 -1.3877247e-16 -31.381102)
(341.69042 1.6163065e-16 -29.957429)
(340.58963 -1.5395586e-16 -31.26472)
(339.86307 1.2817147e-16 -30.251918)
(338.57881 2.4244417e-20 -31.107097)
(337.27347 8.8886802e-17 -30.536591)
(335.56659 0 -30.992944)
(333.59216 6.1356255e-17 -30.722295)
(331.21674 0 -30.897212)
(328.41042 0 -30.728307)
(325.12206 -1.4131628e-16 -30.663314)
(321.29591 -1.1785729e-16 -30.369768)
(316.93204 1.936593e-16 -29.949973)
(312.05214 -1.5863163e-16 -29.231367)
(306.76809 2.62768e-16 -28.173476)
(301.25321 -4.5430804e-16 -26.674541)
(295.74876 2.1577493e-17 -24.717278)
(290.51127 5.667886e-16 -22.334316)
(285.75369 0 -19.653377)
(281.58848 7.2093393e-16 -16.842334)
(278.07574 1.1401643e-15 -14.023103)
(275.22086 2.7952527e-17 -11.352666)
(272.8222 6.9113254e-16 -9.0279776)
(270.89848 1.010423e-15 -7.1388265)
(269.78827 -8.0470701e-16 -5.4936107)
(269.25103 3.6593449e-15 -3.8025667)
(268.88786 -8.7879316e-16 -2.2261984)
(267.35382 1.3291748e-15 -1.5004182)
(263.46095 -2.0012192e-15 -1.7855375)
(260.94942 1.4749301e-15 -2.299752)
(259.88396 3.3707591e-17 -2.2015341)
(259.62613 -2.4485712e-17 -1.651694)
(260.30326 0 -0.99046079)
(260.84216 -2.565425e-17 -0.43673916)
(261.11563 1.8573447e-17 -0.14583317)
(261.2345 0 -0.012397107)
(261.27959 1.2452362e-15 0.042181042)
(261.2946 0 0.062273809)
(261.29892 0 0.0689571)
(261.29991 7.6135636e-18 0.070930123)
(224.2497 -6.0563651e-18 -20.887707)
(264.34039 0 -23.990565)
(290.25608 2.2704304e-16 -26.584801)
(312.05347 -1.9890207e-16 -28.618446)
(330.81797 0 -30.848326)
(342.73595 8.6506032e-18 -31.717113)
(341.75095 0 -32.51581)
(343.03152 0 -31.422361)
(341.47116 -2.0370827e-17 -32.909601)
(341.94186 1.1843932e-16 -31.313995)
(340.7439 -1.1266405e-16 -32.978639)
(340.55937 -2.3533732e-17 -31.505024)
(339.42059 0 -32.853373)
(338.6549 -3.266615e-17 -31.826847)
(337.32386 -5.4740743e-17 -32.693823)
(335.9595 4.5298653e-17 -32.130985)
(334.18734 -3.746598e-17 -32.584914)
(332.13293 0 -32.324139)
(329.66842 0 -32.489111)
(326.76044 0 -32.316539)
(323.36176 1.4284543e-16 -32.226816)
(319.42072 4.7489522e-16 -31.899817)
(314.94615 -1.9560646e-16 -31.419979)
(309.97522 3.0463233e-16 -30.615932)
(304.64026 -5.1596162e-16 -29.439004)
(299.1368 0 -27.792719)
(293.72001 2.2348874e-17 -25.668676)
(288.64632 -5.8919849e-16 -23.116072)
(284.11106 0 -20.278829)
(280.1999 0 -17.333285)
(276.9496 -5.7513991e-16 -14.401136)
(274.34113 8.7254012e-16 -11.647164)
(272.16485 2.2985605e-17 -9.2592179)
(270.4867 -1.0325837e-15 -7.306619)
(269.52734 -1.6699185e-15 -5.5965202)
(269.02986 -2.4177139e-15 -3.870848)
(268.64347 9.3824852e-16 -2.3289579)
(266.67625 -1.3721149e-15 -1.6720061)
(262.82645 2.0370768e-15 -1.973765)
(260.5667 -2.0702085e-17 -2.3923674)
(259.69427 0 -2.2380409)
(259.53857 2.4419703e-17 -1.6302392)
(260.30633 1.0967421e-15 -0.95206042)
(260.84833 1.2792774e-17 -0.4144628)
(261.11965 0 -0.13579132)
(261.23641 1.7038028e-15 -0.0084739832)
(261.28032 0 0.043524413)
(261.29483 9.0726755e-16 0.062676433)
(261.29898 -1.0166554e-17 0.069058273)
(261.29991 0 0.0709494)
(223.84927 0 -21.956187)
(264.20246 0 -25.246552)
(290.2973 0 -28.002864)
(312.20447 0 -30.132998)
(330.88962 0 -32.517527)
(342.02838 -2.8989626e-16 -33.27873)
(340.64381 2.3791466e-16 -34.125049)
(341.94375 2.1045746e-16 -32.939028)
(340.33833 -1.2384916e-16 -34.528476)
(340.8084 1.7153006e-17 -32.846775)
(339.57083 0 -34.587001)
(339.36473 -2.4044343e-17 -33.064735)
(338.18629 0 -34.450232)
(337.37783 -3.3073229e-17 -33.412791)
(335.99686 1.6583678e-16 -34.287688)
(334.56923 -9.1933971e-17 -33.733728)
(332.72749 7.6519267e-17 -34.18131)
(330.58844 -3.166167e-17 -33.928629)
(328.02974 2.6600331e-17 -34.07917)
(325.01472 -2.1816787e-17 -33.898156)
(321.50002 0 -33.776988)
(317.43904 -4.8309716e-16 -33.407777)
(312.8505 2.004664e-16 -32.856809)
(307.78893 -3.2806328e-16 -31.95385)
(302.40874 2.6957904e-16 -30.64349)
(296.92788 -2.791815e-17 -28.836828)
(291.61374 -3.3907663e-16 -26.5371)
(286.71986 0 -23.811943)
(282.42144 0 -20.821782)
(278.7761 0 -17.749759)
(275.79793 -6.0142564e-16 -14.715604)
(273.44637 1.6575761e-17 -11.890123)
(271.50512 -1.4023216e-15 -9.4487735)
(270.05658 1.0739031e-15 -7.4409477)
(269.23191 -8.1479969e-16 -5.6783829)
(268.76868 0 -3.9272163)
(268.32189 -9.1353674e-16 -2.4374409)
(265.95315 -1.3373695e-15 -1.8410763)
(262.22149 -1.9932257e-15 -2.1449383)
(260.18191 -1.4972431e-15 -2.4577315)
(259.49567 -3.3634095e-17 -2.2557401)
(259.47912 1.6104023e-15 -1.6062546)
(260.31378 -1.7768902e-17 -0.91083019)
(260.85639 -1.6264575e-15 -0.3920522)
(261.12444 1.17193e-15 -0.12582106)
(261.23857 -3.3781993e-15 -0.0046243484)
(261.28112 1.2186006e-15 0.04482811)
(261.29508 -8.6745555e-16 0.063062744)
(261.29904 -9.9952915e-18 0.069153632)
(261.29992 9.3381643e-16 0.070967099)
(223.42972 -4.087388e-16 -23.042709)
(264.04279 0 -26.524708)
(290.32338 0 -29.448964)
(312.34543 -6.2784886e-18 -31.683941)
(330.88086 1.0669543e-17 -34.214416)
(341.18777 8.9492619e-18 -34.839586)
(339.47956 -2.4232778e-16 -35.750076)
(340.79829 4.1501875e-16 -34.465311)
(339.14786 -1.8889847e-16 -36.158379)
(339.61588 3.5034509e-17 -34.390329)
(338.33785 -1.1682103e-16 -36.204673)
(338.10721 1.9405136e-16 -34.636812)
(336.88704 8.1127659e-17 -36.056143)
(336.03193 -1.3483127e-16 -35.010864)
(334.59801 -5.6005883e-17 -35.889337)
(333.10319 9.3772563e-17 -35.345008)
(331.18801 -1.1712177e-16 -35.78212)
(328.96004 3.2195973e-17 -35.535441)
(326.3021 0 -35.667032)
(323.17468 1.7938248e-16 -35.472396)
(319.53855 -1.8619262e-16 -35.312652)
(315.35322 2.8553292e-17 -34.891808)
(310.64869 -3.8063646e-16 -34.257866)
(305.49892 -2.0704837e-17 -33.241782)
(300.08184 -2.7626132e-16 -31.78323)
(294.63744 0 -29.803418)
(289.44312 3.6416886e-16 -27.319954)
(284.74616 -5.9156262e-16 -24.420451)
(280.69881 0 -21.28173)
(277.32932 7.4994748e-16 -18.091688)
(274.63074 6.0535397e-16 -14.966347)
(272.54404 -1.1752836e-17 -12.081101)
(270.84419 7.2770689e-16 -9.5972138)
(269.60376 1.8326379e-17 -7.5422469)
(268.89664 3.2453967e-15 -5.7375498)
(268.47167 1.9202426e-17 -3.9726763)
(267.91536 9.0078361e-16 -2.547915)
(265.21735 1.3584861e-15 -2.0082207)
(261.65319 1.0049063e-15 -2.300073)
(259.8191 -2.3081622e-17 -2.5026179)
(259.27819 -2.1333032e-15 -2.2501209)
(259.43733 -3.1144601e-15 -1.5765294)
(260.325 1.1230681e-15 -0.86771316)
(260.8662 1.2943476e-19 -0.3696497)
(261.12988 -1.1455198e-15 -0.11598783)
(261.24092 1.6610203e-15 -0.00087115996)
(261.28196 -1.205151e-15 0.04608554)
(261.29533 1.7519695e-15 0.06343117)
(261.2991 -1.2676314e-15 0.069242896)
(261.29993 -9.1433404e-16 0.070983116)
(222.99208 -8.1935778e-16 -24.141597)
(263.86542 4.485979e-18 -27.817902)
(290.33913 2.3257235e-16 -30.917956)
(312.48273 -6.4240458e-18 -33.264016)
(330.78277 4.7781783e-20 -35.931207)
(340.21444 -9.0631186e-18 -36.399647)
(338.26261 0 -37.388034)
(339.59821 -2.3019809e-16 -36.000741)
(337.90146 1.7069847e-16 -37.800284)
(338.3648 1.6885384e-19 -35.946754)
(337.04453 0 -37.833978)
(336.7858 2.4676219e-19 -36.223287)
(335.52189 -1.2374195e-16 -37.672279)
(334.61667 2.0545002e-16 -36.621632)
(333.12736 -5.6917382e-17 -37.498736)
(331.562 -4.7163263e-17 -36.964434)
(329.56975 1.5791696e-16 -37.386763)
(327.24848 3.2736629e-17 -37.143807)
(324.48614 0 -37.251851)
(321.24099 -1.8117666e-16 -37.038033)
(317.47823 -3.9140472e-17 -36.832101)
(313.16484 2.7986789e-16 -36.349467)
(308.34372 4.1319403e-16 -35.619877)
(303.11039 0 -34.475758)
(297.66748 5.5936658e-16 -32.854071)
(292.27612 0 -30.688887)
(287.22081 -7.4472375e-16 -28.014796)
(282.739 5.9584247e-16 -24.940616)
(278.95652 0 -21.658906)
(275.87074 -1.5131805e-15 -18.359749)
(273.45692 0 -15.153851)
(271.6403 -1.8173012e-15 -12.220331)
(270.1827 9.5137538e-20 -9.705599)
(269.12844 1.8515395e-17 -7.6121715)
(268.52185 -3.3113544e-15 -5.7733613)
(268.13516 1.9275277e-17 -4.0067913)
(267.41953 -4.3167647e-17 -2.6553158)
(264.48077 -2.5876828e-19 -2.169997)