/*--------------------------------*- C++ -*----------------------------------*\
  =========                 |
  \\      /  F ield         | OpenFOAM: The Open Source CFD Toolbox
   \\    /   O peration     | Website:  https://openfoam.org
    \\  /    A nd           | Version:  8
     \\/     M anipulation  |
\*---------------------------------------------------------------------------*/
FoamFile
{
    version     2.0;
    format      ascii;
    class       volVectorField;
    location    "0.0199971";
    object      wallShearStress;
}
// * * * * * * * * * * * * * * * * * * * * * * * * * * * * * * * * * * * * * //

dimensions      [1 -1 -2 0 0 0 0];

internalField   uniform (0 0 0);

boundaryField
{
    aerofoil
    {
        type            calculated;
        value           nonuniform List<vector> 
300
(
(-146.49498 -2.0029741e-16 7.0084034)
(-147.11268 2.0463634e-16 7.585301)
(-148.43757 4.456443e-19 8.2381997)
(-149.22156 1.8717632e-33 8.8814583)
(-149.92672 2.1837041e-16 9.5592802)
(-150.45847 -2.2471376e-16 10.227881)
(-151.01836 2.2976541e-16 10.935039)
(-151.36887 -4.095753e-20 11.623057)
(-151.70093 2.3805115e-16 12.333623)
(-151.92873 -1.2037062e-33 13.040638)
(-152.16358 -1.8751393e-19 13.774642)
(-152.3322 8.7789704e-20 14.509545)
(-152.48867 2.5498223e-16 15.262673)
(-152.61132 4.034594e-18 16.019052)
(-152.74076 -1.4935616e-21 16.795937)
(-152.86045 2.7996427e-16 17.589031)
(-152.96696 5.6289264e-16 18.395993)
(-153.07234 1.9719271e-20 19.221361)
(-153.16784 -4.648727e-18 20.061174)
(-153.25178 2.9893076e-16 20.916946)
(-153.31973 4.77651e-18 21.790835)
(-153.38087 -4.5499821e-18 22.683524)
(-153.44664 3.1761694e-16 23.598893)
(-153.50131 -3.2369048e-16 24.531891)
(-153.55795 -5.1696049e-18 25.492401)
(-153.5831 -3.3664176e-16 26.470467)
(-153.58911 5.3458874e-18 27.471212)
(-153.56315 -3.4992414e-16 28.495022)
(-153.48933 3.5673556e-16 29.538696)
(-153.37462 -3.5229514e-16 30.608926)
(-153.21988 7.1806178e-20 31.709231)
(-153.0285 3.7814083e-16 32.841192)
(-152.81633 7.5884825e-16 34.009438)
(-152.60782 4.0543826e-16 35.220282)
(-152.41872 -1.248226e-17 36.485259)
(-152.24844 1.3640369e-17 37.810543)
(-152.08275 -1.2978382e-17 39.192396)
(-151.95972 -3.8518599e-34 40.644971)
(-151.85866 -4.3372901e-16 42.177838)
(-151.75186 -4.5548277e-16 43.788881)
(-151.5978 -4.3754278e-16 45.46749)
(-151.37216 4.5988421e-16 47.218308)
(-151.04929 -2.6460337e-18 49.053448)
(-150.62939 -2.5801808e-20 50.979178)
(-150.08096 3.3773321e-20 52.997398)
(-149.4481 4.9985838e-16 55.143763)
(-148.71761 5.1872252e-16 57.402184)
(-147.91405 -1.8182168e-17 59.779822)
(-146.89888 5.2432986e-16 62.249697)
(-145.585 -1.6884197e-17 64.802733)
(-143.89741 1.7006225e-17 67.440029)
(-141.76419 -5.4192199e-16 70.155228)
(-139.124 -5.7997721e-16 72.981803)
(-135.93914 1.276117e-17 75.943436)
(-132.20968 -5.9439249e-16 79.092337)
(-127.96682 -5.975753e-16 82.492714)
(-123.32596 -6.280926e-16 86.201083)
(-118.52464 8.2981969e-18 89.911819)
(-114.30628 -2.3866014e-19 93.626504)
(-110.39219 6.4713475e-16 97.150799)
(-106.25602 6.7623411e-16 100.27474)
(-101.42051 2.1257507e-17 102.86593)
(-95.538103 6.6653683e-16 104.55795)
(-88.516547 -1.4076331e-15 105.00484)
(-80.16915 -6.9617235e-16 103.8443)
(-70.547509 0 100.72232)
(-59.880695 -1.1377398e-17 95.26717)
(-48.539486 3.6260337e-16 87.09667)
(-37.08112 3.5720512e-16 75.914701)
(-26.016264 3.6374477e-16 61.65442)
(-15.536512 1.0785208e-32 44.621568)
(-7.8165631 -4.5851082e-18 25.725848)
(-3.5118959 -1.2981306e-16 10.663677)
(-1.2891005 7.3464534e-20 1.8027359)
(-1.1900807 5.8307795e-18 -2.2060474)
(-119.43994 1.191647e-15 -14.179411)
(-151.41683 1.1161997e-15 -14.858573)
(-154.37447 -1.1126261e-15 -14.945083)
(-155.75114 1.1124304e-15 -14.793154)
(-156.34286 5.3261795e-22 -14.595978)
(-156.53796 1.1012889e-15 -14.354149)
(-156.43748 9.3974202e-20 -14.103756)
(-156.05311 -2.0788855e-21 -13.826336)
(-155.50973 5.4097842e-24 -13.538139)
(-154.84335 8.7495663e-19 -13.24692)
(-154.09725 -1.0735006e-15 -12.954463)
(-153.28885 1.0673632e-15 -12.661737)
(-152.43493 9.3265843e-21 -12.371591)
(-151.55701 1.0552548e-15 -12.084736)
(-150.64291 -1.0482564e-15 -11.802729)
(-149.72104 1.4899627e-21 -11.522958)
(-148.80953 -4.8195693e-21 -11.248938)
(-147.90976 -1.3106424e-20 -10.979051)
(-147.02903 -2.1689052e-20 -10.715696)
(-146.17803 -5.0903887e-16 -10.457788)
(-145.35074 5.0573339e-16 -10.206093)
(-144.53832 -5.0239491e-16 -9.9574352)
(-143.73468 4.1434487e-21 -9.7134823)
(-142.94088 5.994466e-19 -9.4711998)
(-142.15269 -6.4627565e-20 -9.2327509)
(-141.37154 -9.8010943e-16 -8.9955566)
(-140.59687 5.191848e-21 -8.7621326)
(-139.834 1.8447327e-21 -8.5292913)
(-139.08255 9.6324539e-16 -8.299404)
(-138.3479 1.8240653e-21 -8.0704029)
(-137.62498 4.7640234e-16 -7.8426763)
(-136.91483 4.7373101e-16 -7.6186844)
(-136.22402 1.8004044e-21 -7.3937671)
(-135.54272 4.6816348e-16 -7.1694109)
(-134.87544 -1.1356137e-19 -6.9456437)
(-134.22199 -4.6390955e-16 -6.7228979)
(-133.58509 -4.6156194e-16 -6.4999143)
(-132.9625 1.2003969e-25 -6.2768452)
(-132.35429 1.7403957e-21 -6.0525608)
(-131.76152 4.5421274e-16 -5.8285948)
(-131.1929 9.0499706e-16 -5.6034441)
(-130.64647 4.504397e-16 -5.3769475)
(-130.11733 -4.4797083e-16 -5.1484836)
(-129.60132 4.0975921e-21 -4.9189793)
(-129.09096 4.4373544e-16 -4.6859556)
(-128.57852 4.4212409e-16 -4.4504986)
(-128.04374 4.4028744e-16 -4.2111767)
(-127.5014 7.4057733e-20 -3.9679751)
(-126.94494 2.1814835e-16 -3.7213888)
(-126.41021 2.1732533e-16 -3.4732501)
(-125.94118 -2.1619618e-16 -3.2211398)
(-125.57882 4.300945e-16 -2.9658379)
(-125.37687 2.2980777e-19 -2.7070751)
(-125.33916 -9.2946123e-20 -2.4451453)
(-125.45851 2.1232098e-16 -2.1757184)
(-125.61641 -2.1793167e-19 -1.8985157)
(-125.62979 -2.1075304e-16 -1.6185088)
(-125.29137 2.1018078e-16 -1.3264232)
(-124.39272 -2.2505449e-19 -1.0269107)
(-123.13979 1.0441675e-16 -0.71694115)
(-121.39127 1.0425932e-16 -0.41500676)
(-118.99233 6.3181211e-21 -0.11796329)
(-115.91301 5.1532242e-17 0.16731336)
(-112.52552 -5.1371148e-17 0.46812162)
(-109.3053 -1.0069409e-19 0.79769794)
(-106.42605 -6.270045e-18 1.0830079)
(-104.43848 5.8425207e-20 1.4141372)
(-104.42313 2.4810876e-17 1.8053006)
(-107.31813 3.2933773e-21 2.3156012)
(-112.3039 -9.687493e-17 2.8451085)
(-119.24054 2.3418733e-20 3.4867704)
(-126.4091 -4.7114052e-20 4.1707204)
(-132.95458 -1.8892795e-16 4.8617765)
(-138.33548 1.8816324e-16 5.5752015)
(-143.37505 5.8074909e-21 6.2881825)
(-154.93547 -1.7731563e-16 6.1818002)
(-158.13742 9.1133442e-17 5.6820632)
(-160.038 9.3515772e-17 5.1084867)
(-161.81425 7.5019429e-19 4.5154165)
(-163.4884 4.7617137e-17 3.9008654)
(-165.11302 -4.8058139e-17 3.1810797)
(-166.7105 2.4145029e-17 2.42654)
(-168.274 1.6783642e-18 1.6658312)
(-169.80519 5.0877551e-18 0.86382073)
(-171.30521 -7.4183831e-23 0.034343714)
(-172.78933 -1.8594619e-19 -0.71893559)
(-174.22785 5.8275367e-17 -1.5235451)
(-175.64237 1.6189875e-19 -2.3630725)
(-177.01349 -1.4708755e-19 -3.2302923)
(-178.36203 -2.4889093e-16 -4.1296248)
(-179.67409 -1.2708166e-16 -5.0596259)
(-180.93468 -3.0099784e-21 -6.0179092)
(-182.15755 1.3294631e-16 -7.0076266)
(-183.32599 -1.3604262e-16 -8.0260674)
(-184.44391 1.3863542e-16 -9.0764738)
(-185.4987 2.8315688e-16 -10.159931)
(-186.48763 -1.4914341e-16 -11.27788)
(-187.43152 -2.9049515e-16 -12.439989)
(-188.33181 1.348151e-33 -13.637472)
(-189.21653 3.0253224e-16 -14.881009)
(-190.07374 3.185424e-16 -16.165665)
(-190.93678 -6.1268646e-33 -17.497893)
(-191.81888 3.2662469e-16 -18.885096)
(-192.71796 3.3322037e-16 -20.32682)
(-193.66391 0 -21.833174)
(-194.66093 1.0484281e-32 -23.410827)
(-195.68087 -3.8518599e-34 -25.072911)
(-196.72123 3.72004e-16 -26.825598)
(-197.76648 -1.1445377e-17 -28.662005)
(-198.8236 2.9416549e-19 -30.594451)
(-199.87678 -1.3035165e-17 -32.631221)
(-200.88592 1.2149258e-17 -34.769242)
(-201.86158 3.961967e-16 -37.013329)
(-202.80216 -1.059162e-17 -39.37327)
(-203.73073 -3.8745363e-16 -41.865195)
(-204.65968 4.0801441e-16 -44.483471)
(-205.5835 4.2702176e-16 -47.220378)
(-206.45274 4.2511698e-16 -50.081034)
(-207.21949 1.3814788e-17 -53.065492)
(-207.80525 4.4924933e-16 -56.167784)
(-208.19144 1.155558e-33 -59.413244)
(-208.30538 2.6255605e-18 -62.800681)
(-208.07054 1.4824711e-17 -66.309407)
(-207.34506 -1.0783777e-17 -69.955005)
(-206.13187 4.8817288e-16 -73.745635)
(-204.39502 -5.1057059e-16 -77.698225)
(-202.09299 1.7435794e-17 -81.821046)
(-199.16821 5.0544479e-16 -86.115748)
(-195.58259 -1.3744672e-17 -90.605107)
(-191.30844 7.1611837e-18 -95.304167)
(-186.32375 -1.7079549e-17 -100.22488)
(-180.63663 1.6858891e-17 -105.39256)
(-174.37889 5.6299287e-16 -110.77726)
(-167.76966 -1.754853e-17 -116.21061)
(-161.43902 3.8336834e-17 -121.57496)
(-155.12238 5.5064833e-16 -126.79369)
(-148.49945 -5.9648312e-16 -131.69884)
(-140.9994 -6.1463469e-16 -135.93996)
(-132.24531 -1.7743552e-19 -139.00235)
(-122.11708 -6.3595134e-16 -140.68796)
(-110.58879 -6.4807745e-16 -140.76753)
(-97.732106 2.0587219e-17 -138.63885)
(-83.361925 6.696983e-16 -133.63163)
(-68.044203 -1.9741351e-17 -125.19112)
(-52.319823 1.1492601e-17 -112.61181)
(-37.168675 -3.4083663e-16 -95.832204)
(-23.457111 -1.289681e-17 -75.364479)
(-12.566946 1.7548857e-16 -52.330621)
(-6.1701315 -5.0508346e-19 -28.528019)
(-2.706889 2.7478142e-19 -12.051937)
(-0.25906426 4.1525023e-21 0.35149509)
(-1.3972387 -2.3934436e-16 0.27217106)
(-1.7446327 2.5240596e-16 0.33494121)
(-2.4952398 -2.7969823e-16 0.4699114)
(-3.2645174 1.151276e-21 0.60653841)
(-4.1867962 9.2107703e-21 0.76971943)
(-5.1969926 -2.316092e-20 0.9427761)
(-6.324611 3.6956016e-16 1.1332289)
(-7.5250939 7.4491312e-22 1.3355843)
(-8.7886905 3.2456161e-21 1.5505495)
(-10.200125 8.3412279e-16 1.7805459)
(-11.56411 -4.3266771e-16 1.9950023)
(-12.956461 -4.4741225e-16 2.2152216)
(-14.37419 -4.6115527e-16 2.4360966)
(-15.80612 9.0629879e-22 2.6549815)
(-17.234918 -9.2584099e-22 2.8693659)
(-18.649284 -4.987226e-16 3.0702907)
(-19.88862 5.2147872e-16 3.249547)
(-21.310379 5.3217443e-16 3.4612148)
(-22.746083 -5.4194213e-16 3.6626876)
(-24.183314 5.2682789e-22 3.860499)
(-25.621445 1.1203299e-15 4.0543853)
(-27.055257 5.6852865e-16 4.2441196)
(-28.481086 -7.3819403e-20 4.4286586)
(-29.895944 -5.8388574e-16 4.6080363)
(-31.309966 2.8233242e-22 4.7836372)
(-32.740967 -5.9700919e-16 4.960038)
(-34.220116 6.0135849e-16 5.1507577)
(-35.893052 -1.1854157e-15 5.3492495)
(-37.328689 -5.5138267e-20 5.4965075)
(-38.743492 1.3314491e-19 5.6502226)
(-40.151971 6.0868745e-16 5.8003896)
(-41.553799 1.2275452e-15 5.9444312)
(-42.940709 -6.1868036e-16 6.0821042)
(-44.31646 -1.4878541e-19 6.2134322)
(-45.688788 -7.3653394e-20 6.3393529)
(-47.062722 5.7460255e-38 6.4593722)
(-48.4223 1.3659219e-25 6.5704035)
(-49.693767 -6.45137e-16 6.6543709)
(-50.662839 6.6364011e-16 6.7124434)
(-51.975689 -8.6586012e-20 6.8218966)
(-53.286186 8.823714e-20 6.9102502)
(-54.575171 4.4694106e-20 6.9895829)
(-55.852115 -1.3567288e-15 7.0615401)
(-57.12963 6.8135308e-16 7.1264334)
(-58.405165 9.1173846e-20 7.1846721)
(-59.664776 5.5475366e-20 7.2337691)
(-60.878157 6.9028728e-16 7.2708058)
(-62.000394 1.0036753e-19 7.2912152)
(-62.999024 5.2825352e-20 7.2927395)
(-63.872262 -1.0317229e-19 7.2738811)
(-64.651766 -6.9755434e-16 7.2391693)
(-65.419765 -4.3147868e-20 7.1979968)
(-66.295824 -1.0075692e-19 7.1581025)
(-67.377361 -6.9206591e-20 7.126836)
(-68.617521 7.0238115e-16 7.0963339)
(-69.633226 1.4086354e-15 7.0366198)
(-69.832629 7.0521966e-16 6.9056199)
(-68.89872 -3.5194132e-16 6.6552184)
(-66.608034 -3.4993339e-16 6.2975636)
(-62.317688 3.3695784e-20 5.7966005)
(-56.07113 3.3548542e-16 5.1632506)
(-49.08208 5.0342693e-20 4.4661528)
(-42.472528 -2.114625e-20 3.8022861)
(-37.880472 -2.4668859e-20 3.2932489)
(-39.7812 2.9005901e-16 3.2134274)
(-52.9905 -4.3993729e-21 3.8738354)
(-76.182378 -4.9123369e-20 5.1190458)
(-101.47903 3.1975532e-16 6.4647857)
(-122.07589 -4.8266226e-21 7.4705548)
(-135.73868 -3.2396625e-16 7.9332871)
(-143.65464 3.250794e-16 7.9677964)
(-148.47693 -2.9080597e-20 7.710396)
(-151.77519 3.2784037e-16 7.3072023)
(-153.08265 -1.6501569e-16 6.744306)
)
;
    }
    inlet
    {
        type            calculated;
        value           uniform (0 0 0);
    }
    outlet
    {
        type            calculated;
        value           uniform (0 0 0);
    }
    back
    {
        type            empty;
    }
    front
    {
        type            empty;
    }
}


// ************************************************************************* //
