/*--------------------------------*- C++ -*----------------------------------*\
  =========                 |
  \\      /  F ield         | OpenFOAM: The Open Source CFD Toolbox
   \\    /   O peration     | Website:  https://openfoam.org
    \\  /    A nd           | Version:  8
     \\/     M anipulation  |
\*---------------------------------------------------------------------------*/
FoamFile
{
    version     2.0;
    format      ascii;
    class       volScalarField;
    location    "0.0199971";
    object      yPlus;
}
// * * * * * * * * * * * * * * * * * * * * * * * * * * * * * * * * * * * * * //

dimensions      [0 0 0 0 0 0 0];

internalField   uniform 0;

boundaryField
{
    aerofoil
    {
        type            calculated;
        value           nonuniform List<scalar> 
300
(
131.23018
130.67907
130.26516
129.66161
129.19251
128.62513
128.23088
127.72941
127.31092
126.8544
126.48743
126.1137
125.78629
125.4632
125.18618
124.9395
124.71639
124.52424
124.35684
124.21326
124.09057
123.98768
123.91581
123.85716
123.82905
123.80801
123.80109
123.80539
123.80837
123.81502
123.82802
123.84764
123.87891
123.92998
124.01131
124.12998
124.27693
124.4626
124.68487
124.93931
125.20712
125.47971
125.74192
126.0133
126.26034
126.52906
126.80428
127.10939
127.39347
127.62221
127.77184
127.83522
127.81482
127.7077
127.55088
127.39737
127.35408
127.49636
128.11789
129.13483
130.28926
131.40942
132.25696
132.67861
132.44648
131.29907
128.93468
124.88844
118.47988
108.70093
94.04418
72.616974
47.53744
20.394741
21.642994
153.56061
153.47747
154.23271
154.5197
154.35105
154.08747
153.70837
153.22093
152.681
152.10137
151.50136
150.88839
150.26459
149.63997
149.01303
148.38591
147.77098
147.17024
146.58524
146.02241
145.47523
144.93804
144.40484
143.87845
143.35406
142.83374
142.31582
141.80465
141.29714
140.79764
140.30457
139.81469
139.33604
138.86056
138.39238
137.92926
137.4737
137.02479
136.58318
136.14619
135.72072
135.30597
134.89928
134.49996
134.10484
133.71598
133.31182
132.91181
132.49957
132.09158
131.70781
131.35773
131.07984
130.85953
130.72436
130.6306
130.49005
130.28899
129.8125
129.21127
128.38445
127.31931
125.85783
124.17458
122.47708
120.73453
119.31393
118.56059
119.50881
120.84185
123.20422
125.5546
127.59485
129.36958
130.55426
124.50602
124.5949
124.53885
124.49021
124.44238
124.40838
124.40846
124.42272
124.45635
124.50431
124.5816
124.6665
124.77674
124.89335
125.03082
125.18479
125.34372
125.51743
125.69448
125.87854
126.06632
126.25196
126.4482
126.64644
126.87244
127.1131
127.37928
127.68196
128.01408
128.39058
128.81202
129.27335
129.77327
130.2979
130.85712
131.45081
132.06134
132.69228
133.34098
134.02231
134.74217
135.501
136.27712
137.07267
137.83858
138.59069
139.30052
139.9612
140.53021
141.01326
141.41216
141.74042
141.98943
142.16944
142.30432
142.42078
142.54837
142.80234
143.22759
144.10085
145.34719
146.92205
148.61667
150.143
151.39449
152.30198
152.6223
151.78595
149.36015
144.3491
135.82044
122.64618
103.6463
77.160562
50.159947
7.6130707
15.227144
16.977288
20.280009
23.16208
26.192849
29.136508
32.08932
34.946448
37.706369
40.552583
43.100081
45.541222
47.883072
50.123248
52.247064
54.247036
55.920908
57.790952
59.601235
61.348219
63.035825
64.663609
66.231394
67.740457
69.205816
70.648842
72.109403
73.726658
75.049377
76.32514
77.56509
78.772267
79.938555
81.070397
82.173443
83.254036
84.298376
85.238645
85.909468
86.872444
87.807299
88.705558
89.575772
90.428921
91.263531
92.071891
92.834319
93.523971
94.115473
94.61005
95.023576
95.404683
95.841322
96.388317
97.032252
97.562192
97.597641
96.877796
95.313223
92.363003
87.792339
82.157666
76.39232
71.694619
72.487482
81.410533
94.428011
105.62994
113.27719
118.03957
120.5898
122.21645
123.34036
124.15622
)
;
    }
    inlet
    {
        type            calculated;
        value           uniform 0;
    }
    outlet
    {
        type            calculated;
        value           uniform 0;
    }
    back
    {
        type            empty;
    }
    front
    {
        type            empty;
    }
}


// ************************************************************************* //
