/*--------------------------------*- C++ -*----------------------------------*\
  =========                 |
  \\      /  F ield         | OpenFOAM: The Open Source CFD Toolbox
   \\    /   O peration     | Website:  https://openfoam.org
    \\  /    A nd           | Version:  8
     \\/     M anipulation  |
\*---------------------------------------------------------------------------*/
FoamFile
{
    version     2.0;
    format      ascii;
    class       volScalarField;
    location    "0.250004";
    object      alphat;
}
// * * * * * * * * * * * * * * * * * * * * * * * * * * * * * * * * * * * * * //

dimensions      [1 -1 -1 0 0 0 0];

internalField   nonuniform List<scalar> 
20000
(
0.0010235591
0.0024778195
0.0032673593
0.0035000426
0.0030628968
0.0015045671
0.00010763884
4.4973296e-09
2.8103156e-09
2.7849808e-09
2.6612269e-09
2.6856803e-09
2.6275424e-09
2.6613297e-09
2.6532514e-09
2.6956674e-09
2.7181363e-09
2.7729746e-09
2.8266817e-09
2.9112538e-09
3.0093846e-09
3.1466679e-09
3.3152305e-09
3.5320987e-09
3.795385e-09
4.1159782e-09
4.4845957e-09
4.9002339e-09
5.3495144e-09
5.8101001e-09
6.2589343e-09
6.6778375e-09
7.0524897e-09
7.3751776e-09
7.6432383e-09
7.8608677e-09
8.0338048e-09
8.1702547e-09
8.2766475e-09
8.36036e-09
8.4277181e-09
8.4822719e-09
8.5290267e-09
8.5727375e-09
8.6176235e-09
8.6538269e-09
8.6897131e-09
8.7136357e-09
8.7251626e-09
8.6297542e-09
0.001013318
0.0024285272
0.0031668983
0.003352419
0.0028776034
0.0012807158
4.6331267e-05
3.6750706e-09
2.7147469e-09
2.6951062e-09
2.5774149e-09
2.6038522e-09
2.5486171e-09
2.5839713e-09
2.5782524e-09
2.6235243e-09
2.6491063e-09
2.7080512e-09
2.7663917e-09
2.8567998e-09
2.9627737e-09
3.1058661e-09
3.2793878e-09
3.5008657e-09
3.770417e-09
4.0975407e-09
4.4744773e-09
4.8977055e-09
5.3505339e-09
5.8179135e-09
6.2720976e-09
6.6930072e-09
7.0671803e-09
7.3878621e-09
7.6536959e-09
7.869033e-09
8.040021e-09
8.1749373e-09
8.2803412e-09
8.3635955e-09
8.4305392e-09
8.4847658e-09
8.5313822e-09
8.5754339e-09
8.6203021e-09
8.6558555e-09
8.6917974e-09
8.7130637e-09
8.7251039e-09
8.6289284e-09
0.00099909133
0.0023774264
0.0030772563
0.0032203126
0.0027120245
0.0010900873
1.6392041e-05
3.2882872e-09
2.6520698e-09
2.6372737e-09
2.5238428e-09
2.5521844e-09
2.4988018e-09
2.5359627e-09
2.53295e-09
2.5811922e-09
2.6112347e-09
2.6752771e-09
2.7385058e-09
2.8332749e-09
2.9425036e-09
3.089061e-09
3.2671014e-09
3.4925942e-09
3.7657581e-09
4.0964301e-09
4.4754106e-09
4.9042161e-09
5.3666076e-09
5.8383106e-09
6.2937688e-09
6.7136432e-09
7.0854379e-09
7.4029707e-09
7.665474e-09
7.8777173e-09
8.0463406e-09
8.179528e-09
8.2838269e-09
8.3665506e-09
8.4332472e-09
8.487338e-09
8.5340478e-09
8.5787953e-09
8.6239166e-09
8.660096e-09
8.6941638e-09
8.715562e-09
8.7228091e-09
8.6253147e-09
0.00098741207
0.00233386
0.003000145
0.0031010628
0.0025554824
0.00092254324
5.0876745e-06
3.0854361e-09
2.6097745e-09
2.5987546e-09
2.4886691e-09
2.5192201e-09
2.4693112e-09
2.5101353e-09
2.5105481e-09
2.5620275e-09
2.5944676e-09
2.6605139e-09
2.7259217e-09
2.8230811e-09
2.9347253e-09
3.0832677e-09
3.2635664e-09
3.4901615e-09
3.7648878e-09
4.0989632e-09
4.4899114e-09
4.9290469e-09
5.3972726e-09
5.8720463e-09
6.32746e-09
6.744588e-09
7.1120498e-09
7.4246318e-09
7.6823926e-09
7.8904351e-09
8.0557254e-09
8.1864118e-09
8.2890376e-09
8.3707992e-09
8.436824e-09
8.4904175e-09
8.5369958e-09
8.5822146e-09
8.6274136e-09
8.6641079e-09
8.6969765e-09
8.7154443e-09
8.7211407e-09
8.623738e-09
0.00097840828
0.0022954256
0.0029275505
0.0029946022
0.002402691
0.00077322165
1.4886913e-06
2.9746384e-09
2.5845001e-09
2.5779431e-09
2.4711598e-09
2.5044474e-09
2.4565556e-09
2.4991607e-09
2.5005988e-09
2.5534845e-09
2.5874039e-09
2.6549539e-09
2.7218813e-09
2.8207219e-09
2.9332163e-09
3.0826714e-09
3.264335e-09
3.4968244e-09
3.7802552e-09
4.1238296e-09
4.5225648e-09
4.9689646e-09
5.4423521e-09
5.9179478e-09
6.3707678e-09
6.782919e-09
7.1442643e-09
7.450508e-09
7.7023712e-09
7.9053339e-09
8.0666446e-09
8.1943706e-09
8.2949908e-09
8.3755586e-09
8.4407603e-09
8.4937474e-09
8.5402041e-09
8.5859315e-09
8.6311932e-09
8.6691853e-09
8.6996981e-09
8.7155298e-09
8.718817e-09
8.6219028e-09
0.00096976146
0.0022590763
0.0028587123
0.0028890346
0.0022506384
0.00064107193
4.4412136e-07
2.9141485e-09
2.5702057e-09
2.5674494e-09
2.4626349e-09
2.4977699e-09
2.4510894e-09
2.4944338e-09
2.496855e-09
2.5507529e-09
2.5856683e-09
2.6536138e-09
2.7211813e-09
2.8207827e-09
2.9367335e-09
3.0917614e-09
3.2804464e-09
3.5197567e-09
3.8106377e-09
4.1625613e-09
4.5706277e-09
5.0241618e-09
5.5006683e-09
5.9753938e-09
6.4238158e-09
6.8291664e-09
7.1827063e-09
7.481185e-09
7.7260014e-09
7.9229893e-09
8.0796031e-09
8.2038235e-09
8.3020471e-09
8.3811184e-09
8.445234e-09
8.497413e-09
8.5437077e-09
8.5898765e-09
8.6351237e-09
8.6742784e-09
8.7021259e-09
8.7151924e-09
8.7159789e-09
8.6203069e-09
0.00096344611
0.0022264916
0.0027941754
0.00278882
0.0020968406
0.00052717506
1.4274189e-07
2.8790189e-09
2.5627005e-09
2.5623173e-09
2.4592518e-09
2.4950607e-09
2.4495949e-09
2.4931631e-09
2.4958823e-09
2.5501627e-09
2.5858439e-09
2.6563515e-09
2.7276074e-09
2.8318853e-09
2.9527105e-09
3.1127857e-09
3.3077053e-09
3.5548678e-09
3.8551301e-09
4.2168108e-09
4.6332654e-09
5.0926888e-09
5.5711813e-09
6.043294e-09
6.4854193e-09
6.882198e-09
7.226414e-09
7.5158916e-09
7.752652e-09
7.9428831e-09
8.0941966e-09
8.2144637e-09
8.3099688e-09
8.3873016e-09
8.4501208e-09
8.5013577e-09
8.5475288e-09
8.5941228e-09
8.6393799e-09
8.6788622e-09
8.7033551e-09
8.7135493e-09
8.7117747e-09
8.6182605e-09
0.00095735166
0.0021942798
0.0027309894
0.0026903928
0.0019399584
0.00042496744
5.1275452e-08
2.858622e-09
2.5614074e-09
2.5593691e-09
2.4557814e-09
2.4918103e-09
2.4498703e-09
2.4945352e-09
2.499114e-09
2.5559352e-09
2.5946e-09
2.6681022e-09
2.7426826e-09
2.8508453e-09
2.9768024e-09
3.1432291e-09
3.3459104e-09
3.6017879e-09
3.9118046e-09
4.2834564e-09
4.7087659e-09
5.1736179e-09
5.6527665e-09
6.1207296e-09
6.5549138e-09
6.9415465e-09
7.2750577e-09
7.554397e-09
7.7821818e-09
7.9649382e-09
8.1103889e-09
8.2262803e-09
8.3187633e-09
8.39412e-09
8.4554203e-09
8.5055927e-09
8.5516998e-09
8.5987032e-09
8.6440043e-09
8.6823163e-09
8.7038617e-09
8.7117634e-09
8.7058025e-09
8.6155928e-09
0.00095131457
0.002162732
0.0026683178
0.002591662
0.0017797061
0.00033294355
2.1507811e-08
2.8492741e-09
2.5611538e-09
2.5597292e-09
2.4557755e-09
2.4924964e-09
2.4561361e-09
2.5026453e-09
2.5090955e-09
2.5680301e-09
2.609132e-09
2.685805e-09
2.7643848e-09
2.8773447e-09
3.0090795e-09
3.1821926e-09
3.3930704e-09
3.6586024e-09
3.9795653e-09
4.3620346e-09
4.796109e-09
5.2656933e-09
5.7443659e-09
6.2066791e-09
6.6313508e-09
7.0063924e-09
7.3279771e-09
7.59619e-09
7.8142001e-09
7.9888588e-09
8.1279645e-09
8.2391213e-09
8.3283227e-09
8.4014936e-09
8.4610775e-09
8.5101076e-09
8.5562478e-09
8.6037018e-09
8.6488416e-09
8.6847069e-09
8.7039471e-09
8.7108629e-09
8.6963432e-09
8.6119398e-09
0.00094537682
0.0021325152
0.0026063436
0.0024907569
0.0016187145
0.00025022578
1.0892024e-08
2.8514659e-09
2.5683653e-09
2.5650062e-09
2.4630988e-09
2.4984913e-09
2.4668939e-09
2.5154776e-09
2.5239427e-09
2.5852734e-09
2.6292523e-09
2.7093105e-09
2.7919899e-09
2.9098438e-09
3.0477876e-09
3.2284246e-09
3.4485411e-09
3.7247296e-09
4.0574871e-09
4.4513175e-09
4.8942846e-09
5.3679817e-09
5.8449776e-09
6.3002045e-09
6.7139126e-09
7.076057e-09
7.3846366e-09
7.6408608e-09
7.8484044e-09
8.0144254e-09
8.1467699e-09
8.2528848e-09
8.3385802e-09
8.4093683e-09
8.4670618e-09
8.5149089e-09
8.561194e-09
8.6092106e-09
8.6536429e-09
8.686575e-09
8.7038563e-09
8.7099797e-09
8.6836707e-09
8.6074887e-09
0.00094059806
0.0021039989
0.0025454071
0.0023935693
0.0014584994
0.00017541115
6.6677774e-09
2.8529575e-09
2.5775192e-09
2.5746904e-09
2.4760418e-09
2.5124005e-09
2.4824081e-09
2.5327101e-09
2.5431534e-09
2.6068489e-09
2.6537106e-09
2.7373438e-09
2.8245347e-09
2.9478332e-09
3.0926237e-09
3.2814624e-09
3.5116551e-09
3.799513e-09
4.1450519e-09
4.5508239e-09
5.002542e-09
5.4795594e-09
5.9536426e-09
6.4003517e-09
6.8017195e-09
7.1497868e-09
7.4444275e-09
7.6879375e-09
7.8844361e-09
8.0413703e-09
8.1666129e-09
8.2674401e-09
8.3494453e-09
8.4176685e-09
8.4733356e-09
8.5200067e-09
8.5665529e-09
8.6153235e-09
8.658589e-09
8.6882157e-09
8.7036399e-09
8.7084272e-09
8.6697931e-09
8.6026487e-09
0.00093588685
0.002077104
0.0024869293
0.0022979633
0.0013004961
0.00010934528
4.8050796e-09
2.8581448e-09
2.5885079e-09
2.5885123e-09
2.4912016e-09
2.5292798e-09
2.5009613e-09
2.5532058e-09
2.5658221e-09
2.6320939e-09
2.6821353e-09
2.7696137e-09
2.8616431e-09
2.9907943e-09
3.1430393e-09
3.3409007e-09
3.582159e-09
3.8827164e-09
4.2418878e-09
4.6599933e-09
5.1202023e-09
5.5996281e-09
6.0694615e-09
6.5062277e-09
6.8939576e-09
7.2268884e-09
7.5067898e-09
7.7369842e-09
7.921963e-09
8.0694448e-09
8.1873149e-09
8.2826665e-09
8.3608371e-09
8.4263279e-09
8.479869e-09
8.525423e-09
8.5723354e-09
8.6221147e-09
8.6637362e-09
8.6897085e-09
8.7020451e-09
8.7057333e-09
8.6560798e-09
8.5978273e-09
0.00093181026
0.0020513958
0.0024313099
0.002202134
0.0011458402
5.6415783e-05
3.9120594e-09
2.8656096e-09
2.6020793e-09
2.6045318e-09
2.5090486e-09
2.5491003e-09
2.5225152e-09
2.5767686e-09
2.5917355e-09
2.6606935e-09
2.7141332e-09
2.8057207e-09
2.9030146e-09
3.0385609e-09
3.1989607e-09
3.4066666e-09
3.6599582e-09
3.974234e-09
4.3478347e-09
4.7785158e-09
5.2467088e-09
5.7274209e-09
6.1915634e-09
6.6169474e-09
6.9898069e-09
7.3066563e-09
7.5711509e-09
7.7875528e-09
7.9606399e-09
8.0983884e-09
8.2086878e-09
8.2984357e-09
8.3726694e-09
8.435289e-09
8.4866355e-09
8.5311917e-09
8.5785713e-09
8.6294774e-09
8.6685241e-09
8.6911561e-09
8.6997067e-09
8.7004057e-09
8.6432443e-09
8.5933431e-09
0.00092761443
0.0020256004
0.0023751383
0.0021042615
0.00099664891
2.3122027e-05
3.4660399e-09
2.8766424e-09
2.618031e-09
2.6231275e-09
2.5294314e-09
2.5714184e-09
2.5466921e-09
2.6031121e-09
2.6205885e-09
2.6924361e-09
2.7495351e-09
2.8455434e-09
2.9485395e-09
3.0910259e-09
3.260304e-09
3.4787339e-09
3.7450828e-09
4.074078e-09
4.4627791e-09
4.9060626e-09
5.3815139e-09
5.8621977e-09
6.3191133e-09
6.7316759e-09
7.0885035e-09
7.3884382e-09
7.636983e-09
7.8392283e-09
8.0001445e-09
8.1279563e-09
8.2305532e-09
8.3146237e-09
8.3848537e-09
8.4445099e-09
8.4936169e-09
8.5373542e-09
8.585338e-09
8.6366181e-09
8.6724744e-09
8.6921839e-09
8.698154e-09
8.6910797e-09
8.6319775e-09
8.5893135e-09
0.00092375963
0.0020001941
0.0023188961
0.0020032832
0.00085459902
7.7210564e-06
3.2407639e-09
2.8909349e-09
2.6362315e-09
2.6438895e-09
2.5523213e-09
2.5961938e-09
2.5734498e-09
2.6321044e-09
2.6522978e-09
2.7271782e-09
2.7882332e-09
2.889006e-09
2.9982012e-09
3.1482459e-09
3.3271847e-09
3.5572627e-09
3.8377115e-09
4.1823964e-09
4.5867328e-09
5.0424108e-09
5.5241133e-09
6.0032423e-09
6.4512901e-09
6.8495889e-09
7.1892912e-09
7.4715888e-09
7.703765e-09
7.8915988e-09
8.0401559e-09
8.1579039e-09
8.2527331e-09
8.3311042e-09
8.3972887e-09
8.4539232e-09
8.5008009e-09
8.543945e-09
8.5927578e-09
8.64306e-09
8.6754248e-09
8.6925502e-09
8.6972965e-09
8.678511e-09
8.6227879e-09
8.5858198e-09
0.00092006772
0.0019751955
0.0022623927
0.0019004797
0.00072161635
2.2789702e-06
3.1302225e-09
2.9073788e-09
2.6567899e-09
2.6669135e-09
2.57752e-09
2.623281e-09
2.6026136e-09
2.6636351e-09
2.6867492e-09
2.7648899e-09
2.8302095e-09
2.9361227e-09
3.0520561e-09
3.210309e-09
3.3997349e-09
3.6424253e-09
3.938053e-09
4.2993298e-09
4.7196738e-09
5.1872702e-09
5.6739611e-09
6.14983e-09
6.5872907e-09
6.9699039e-09
7.2914695e-09
7.5555205e-09
7.7710256e-09
7.9442888e-09
8.0803809e-09
8.1880056e-09
8.2750629e-09
8.3477586e-09
8.4098714e-09
8.4633945e-09
8.5081729e-09
8.5509642e-09
8.6008947e-09
8.6486535e-09
8.6776665e-09
8.6926799e-09
8.6966429e-09
8.6653634e-09
8.61531e-09
8.5829145e-09
0.00091656461
0.0019508237
0.002205316
0.0017940384
0.00059891441
6.5174142e-07
3.0808983e-09
2.9260082e-09
2.6795613e-09
2.6919753e-09
2.6048249e-09
2.6525503e-09
2.6341285e-09
2.6976485e-09
2.7239217e-09
2.8055355e-09
2.8754866e-09
2.9869725e-09
3.110238e-09
3.2774127e-09
3.4782069e-09
3.7345414e-09
4.0464408e-09
4.4251469e-09
4.8616522e-09
5.3404058e-09
5.8305342e-09
6.3012443e-09
6.7263269e-09
7.0918543e-09
7.3943573e-09
7.6396655e-09
7.8383059e-09
7.9969321e-09
8.1205347e-09
8.2180424e-09
8.2973834e-09
8.3644712e-09
8.4225373e-09
8.4729572e-09
8.5156938e-09
8.5583702e-09
8.6095411e-09
8.6537103e-09
8.6795863e-09
8.6926554e-09
8.6958431e-09
8.652996e-09
8.6088172e-09
8.5804645e-09
0.00091348061
0.0019277018
0.0021490313
0.0016820735
0.00048772998
1.9693462e-07
3.0650545e-09
2.9465846e-09
2.7042546e-09
2.7189397e-09
2.6341813e-09
2.6839828e-09
2.6679678e-09
2.7341574e-09
2.7638076e-09
2.8491817e-09
2.9241487e-09
3.0416815e-09
3.1729141e-09
3.3497657e-09
3.5628562e-09
3.8339205e-09
4.1631854e-09
4.5600446e-09
5.012619e-09
5.5014604e-09
5.9932191e-09
6.4567253e-09
6.8676117e-09
7.2147085e-09
7.4973276e-09
7.7235137e-09
7.9051959e-09
8.0492031e-09
8.1603649e-09
8.24782e-09
8.3195517e-09
8.3811343e-09
8.4351925e-09
8.482539e-09
8.5233557e-09
8.5661019e-09
8.6182381e-09
8.6586678e-09
8.6815564e-09
8.6925398e-09
8.6940992e-09
8.6422868e-09
8.6027604e-09
8.5782317e-09
0.00091066271
0.0019054094
0.0020995121
0.0015639948
0.00039109106
6.8955544e-08
3.0672882e-09
2.9688532e-09
2.7307603e-09
2.7478223e-09
2.6656071e-09
2.717604e-09
2.704166e-09
2.7731672e-09
2.806475e-09
2.8958807e-09
2.9763249e-09
3.1004322e-09
3.2403204e-09
3.427658e-09
3.6540532e-09
3.9410031e-09
4.2887274e-09
4.7043146e-09
5.1725816e-09
5.6701027e-09
6.161414e-09
6.6155257e-09
7.0103701e-09
7.3377518e-09
7.5997733e-09
7.8065716e-09
7.9712991e-09
8.1007973e-09
8.1996308e-09
8.2771573e-09
8.3414328e-09
8.397647e-09
8.4477578e-09
8.4920688e-09
8.5311522e-09
8.5741244e-09
8.6266463e-09
8.6635457e-09
8.6837583e-09
8.6924425e-09
8.6905472e-09
8.6335683e-09
8.5970529e-09
8.5759212e-09
0.00090794475
0.0018823918
0.0020456832
0.0014388557
0.00030476941
2.8792931e-08
3.0795451e-09
2.9931457e-09
2.7592953e-09
2.7787212e-09
2.699161e-09
2.7534221e-09
2.742722e-09
2.8147208e-09
2.8519901e-09
2.9457835e-09
3.0321878e-09
3.1634366e-09
3.3126971e-09
3.5113846e-09
3.7521622e-09
4.0562044e-09
4.4234346e-09
4.8581182e-09
5.3413797e-09
5.845851e-09
6.3344096e-09
6.7768467e-09
7.1538227e-09
7.4603018e-09
7.7011338e-09
7.8883915e-09
8.0362689e-09
8.1514673e-09
8.2381241e-09
8.305903e-09
8.3629092e-09
8.4139199e-09
8.4601644e-09
8.5015272e-09
8.5390928e-09
8.5824564e-09
8.6344815e-09
8.6680395e-09
8.6857399e-09
8.6927472e-09
8.6842363e-09
8.6267295e-09
8.5918494e-09
8.5733378e-09
0.00090554607
0.0018595587
0.0019930388
0.001308637
0.00022663453
1.4541652e-08
3.0982332e-09
3.0193077e-09
2.7897647e-09
2.8115895e-09
2.7347774e-09
2.7914364e-09
2.7836745e-09
2.8589146e-09
2.9004946e-09
2.9990475e-09
3.0919413e-09
3.2309297e-09
3.3903493e-09
3.6013341e-09
3.8576783e-09
4.1800801e-09
4.5677958e-09
5.0216946e-09
5.5188947e-09
6.0282369e-09
6.5115065e-09
6.9398944e-09
7.2972112e-09
7.5817051e-09
7.8008673e-09
7.9685363e-09
8.0997855e-09
8.2010012e-09
8.2756484e-09
8.3339187e-09
8.3838746e-09
8.4298716e-09
8.4723472e-09
8.5108758e-09
8.5471845e-09
8.5911663e-09
8.6415302e-09
8.6720513e-09
8.6876005e-09
8.6937348e-09
8.6763521e-09
8.6204831e-09
8.5871854e-09
8.5705128e-09
0.00090340301
0.0018362821
0.0019391321
0.0011759275
0.00015641644
8.879767e-09
3.1211841e-09
3.0473306e-09
2.822061e-09
2.8463806e-09
2.7725044e-09
2.8317067e-09
2.8271503e-09
2.9058808e-09
2.9521693e-09
3.0558776e-09
3.1558044e-09
3.3031675e-09
3.4735858e-09
3.6979086e-09
3.9710809e-09
4.3131329e-09
4.7221627e-09
5.1950962e-09
5.7047929e-09
6.2166025e-09
6.6918568e-09
7.1037994e-09
7.4397734e-09
7.701351e-09
7.8984825e-09
8.0466275e-09
8.1616108e-09
8.249232e-09
8.3120411e-09
8.3610801e-09
8.4042442e-09
8.4454338e-09
8.4842512e-09
8.5200826e-09
8.5554144e-09
8.6002911e-09
8.6477542e-09
8.6755937e-09
8.6890984e-09
8.6939031e-09
8.6674211e-09
8.6144612e-09
8.58314e-09
8.5675249e-09
0.00090168888
0.0018125704
0.0018844354
0.0010499963
9.5706306e-05
6.3727583e-09
3.1472648e-09
3.0772088e-09
2.8563201e-09
2.883151e-09
2.8124263e-09
2.8743833e-09
2.8733001e-09
2.9558023e-09
3.0071836e-09
3.1164619e-09
3.2240133e-09
3.3804477e-09
3.5628064e-09
3.8016234e-09
4.0930057e-09
4.4559984e-09
4.8870073e-09
5.3784306e-09
5.8987666e-09
6.4102852e-09
6.8746125e-09
7.2677049e-09
7.5807858e-09
7.8186804e-09
7.9935361e-09
8.1223505e-09
8.2215879e-09
8.2959676e-09
8.3471615e-09
8.3872482e-09
8.4239486e-09
8.4605469e-09
8.4958281e-09
8.5291104e-09
8.5637335e-09
8.6094578e-09
8.6534738e-09
8.6786152e-09
8.6903068e-09
8.6939855e-09
8.6580543e-09
8.6084921e-09
8.5793306e-09
8.5647584e-09
0.00089987846
0.0017865179
0.0018270123
0.00092995188
4.9261505e-05
5.1666393e-09
3.1758139e-09
3.1090816e-09
2.8925891e-09
2.9221755e-09
2.8546941e-09
2.9196359e-09
2.9222804e-09
3.0088392e-09
3.0657161e-09
3.1810167e-09
3.2968226e-09
3.4631017e-09
3.6584296e-09
3.9130192e-09
4.2240371e-09
4.6092194e-09
5.0625813e-09
5.5715608e-09
6.1002302e-09
6.6084038e-09
7.0587757e-09
7.4307034e-09
7.7195563e-09
7.933195e-09
8.085683e-09
8.1955354e-09
8.2796669e-09
8.3409592e-09
8.3809138e-09
8.4122779e-09
8.4429355e-09
8.4751653e-09
8.5070426e-09
8.5379299e-09
8.5720721e-09
8.6185964e-09
8.6588353e-09
8.681205e-09
8.6912375e-09
8.6937354e-09
8.6485074e-09
8.6027714e-09
8.5758116e-09
8.5622048e-09
0.00089805013
0.0017574026
0.0017662634
0.00081634956
2.086675e-05
4.5561318e-09
3.2067574e-09
3.1429256e-09
2.931052e-09
2.9635554e-09
2.8995004e-09
2.9675703e-09
2.9742409e-09
3.0651492e-09
3.1279541e-09
3.2497585e-09
3.3745345e-09
3.5515336e-09
3.761001e-09
4.032761e-09
4.3649349e-09
4.7734475e-09
5.2492527e-09
5.7743659e-09
6.3086132e-09
6.8100686e-09
7.2433701e-09
7.5919707e-09
7.8554969e-09
8.0444525e-09
8.1746763e-09
8.2661592e-09
8.3357923e-09
8.3838832e-09
8.4132154e-09
8.4360431e-09
8.4611477e-09
8.4892524e-09
8.517872e-09
8.546537e-09
8.5804014e-09
8.6275853e-09
8.6640424e-09
8.6836415e-09
8.6918647e-09
8.6933082e-09
8.6394641e-09
8.5974882e-09
8.5727172e-09
8.5599144e-09
0.00089594515
0.0017250745
0.0017010616
0.00070986679
7.5710337e-06
4.2422985e-09
3.2397791e-09
3.1787977e-09
2.9717008e-09
3.0073576e-09
2.94694e-09
3.0183323e-09
3.0293068e-09
3.1248927e-09
3.1941005e-09
3.3229541e-09
3.4575012e-09
3.6462049e-09
3.871098e-09
4.161525e-09
4.5163722e-09
4.9491655e-09
5.44709e-09
5.9864038e-09
6.5230282e-09
7.0141563e-09
7.4273434e-09
7.750773e-09
7.9881146e-09
8.1520371e-09
8.2603568e-09
8.3342977e-09
8.3896931e-09
8.4245412e-09
8.4439613e-09
8.4585382e-09
8.478513e-09
8.5027848e-09
8.5283094e-09
8.5549733e-09
8.5888339e-09
8.6362138e-09
8.6690872e-09
8.6861757e-09
8.692242e-09
8.6907948e-09
8.6315776e-09
8.5928249e-09
8.5700275e-09
8.5579284e-09
0.00089345621
0.0016889517
0.0016289199
0.00061141724
2.5237847e-06
4.0846039e-09
3.2752451e-09
3.2170196e-09
3.0148531e-09
3.0535562e-09
2.9970484e-09
3.0720524e-09
3.0876394e-09
3.1882538e-09
3.2643847e-09
3.4009159e-09
3.5461454e-09
3.7476832e-09
3.9894237e-09
4.3001414e-09
4.6791787e-09
5.1369783e-09
5.6562342e-09
6.207256e-09
6.7425953e-09
7.2196097e-09
7.6098455e-09
7.9066558e-09
8.1170307e-09
8.2555367e-09
8.3425495e-09
8.3998639e-09
8.4407576e-09
8.4630457e-09
8.472936e-09
8.4799576e-09
8.4949426e-09
8.515744e-09
8.5383571e-09
8.563311e-09
8.5975896e-09
8.6442111e-09
8.6735812e-09
8.6882389e-09
8.6933787e-09
8.684859e-09
8.6251196e-09
8.5888289e-09
8.5677018e-09
8.5562072e-09
0.00089061859
0.0016491323
0.0015457161
0.0005229322
8.2583348e-07
4.0117772e-09
3.3130494e-09
3.2575263e-09
3.060407e-09
3.102407e-09
3.0500003e-09
3.1288555e-09
3.1494238e-09
3.2554362e-09
3.3390986e-09
3.4840335e-09
3.6409757e-09
3.8565913e-09
4.1167103e-09
4.4494027e-09
4.8540375e-09
5.337212e-09
5.8764414e-09
6.4360977e-09
6.9661158e-09
7.4252646e-09
7.7901973e-09
8.0593207e-09
8.2417938e-09
8.3545582e-09
8.4209726e-09
8.4622012e-09
8.4886883e-09
8.499647e-09
8.499855e-09
8.5006407e-09
8.5103936e-09
8.5281147e-09
8.5480181e-09
8.5716325e-09
8.6068757e-09
8.6513245e-09
8.6774933e-09
8.6898601e-09
8.6939592e-09
8.6765933e-09
8.619278e-09
8.5853997e-09
8.5657526e-09
8.5547328e-09
0.00088764715
0.0016068018
0.001454175
0.00044270351
2.7970586e-07
3.9864938e-09
3.3532513e-09
3.3004718e-09
3.1086602e-09
3.1541114e-09
3.1058316e-09
3.188875e-09
3.2148656e-09
3.3267077e-09
3.4185867e-09
3.5727668e-09
3.7425885e-09
3.9736648e-09
4.2538257e-09
4.6102616e-09
5.0417781e-09
5.550298e-09
6.1075148e-09
6.6721348e-09
7.1924853e-09
7.6302274e-09
7.9680967e-09
8.2084036e-09
8.3616335e-09
8.4488705e-09
8.4952249e-09
8.5205727e-09
8.533456e-09
8.5345491e-09
8.5246851e-09
8.5206396e-09
8.5249655e-09
8.5398728e-09
8.5572873e-09
8.5799943e-09
8.6165423e-09
8.6575998e-09
8.6807797e-09
8.6910958e-09
8.6940307e-09
8.666999e-09
8.6135359e-09
8.5824093e-09
8.5641717e-09
8.5535174e-09
0.00088469034
0.0015625729
0.0013547375
0.00036282307
1.0359231e-07
3.9888278e-09
3.3959628e-09
3.3460363e-09
3.159628e-09
3.2086723e-09
3.1648314e-09
3.2523299e-09
3.2842066e-09
3.4023926e-09
3.5032994e-09
3.6676366e-09
3.8516615e-09
4.0996838e-09
4.4016495e-09
4.7835632e-09
5.2429928e-09
5.776249e-09
6.3487841e-09
6.9141359e-09
7.4203975e-09
7.833741e-09
8.1432065e-09
8.3526218e-09
8.4758647e-09
8.5380219e-09
8.5649734e-09
8.5750398e-09
8.5763425e-09
8.5669968e-09
8.5478592e-09
8.5392765e-09
8.5389454e-09
8.5509823e-09
8.5661571e-09
8.5883945e-09
8.6261811e-09
8.6633236e-09
8.6835619e-09
8.6920992e-09
8.6938465e-09
8.6562922e-09
8.6078441e-09
8.5796768e-09
8.5629146e-09
8.5525296e-09
0.00088183913
0.0015165172
0.0012509739
0.00029256723
4.5632278e-08
4.0073777e-09
3.4411115e-09
3.3941563e-09
3.2133319e-09
3.2661221e-09
3.2272537e-09
3.3194542e-09
3.3577765e-09
3.4829086e-09
3.5937403e-09
3.7693053e-09
3.9689446e-09
4.2355558e-09
4.5612014e-09
4.9703478e-09
5.4583923e-09
6.0151769e-09
6.5996103e-09
7.16099e-09
7.6488485e-09
8.0354943e-09
8.3146279e-09
8.4907782e-09
8.5836432e-09
8.6217108e-09
8.6304142e-09
8.6266762e-09
8.6167059e-09
8.5971713e-09
8.5695638e-09
8.5560833e-09
8.5525828e-09
8.5614018e-09
8.5746311e-09
8.596791e-09
8.6355603e-09
8.6686312e-09
8.6861264e-09
8.6930129e-09
8.6935026e-09
8.6458553e-09
8.602401e-09
8.5772059e-09
8.5619712e-09
8.551824e-09
0.00087897606
0.0014670708
0.0011521124
0.00022726133
2.3264922e-08
4.0354893e-09
3.4886618e-09
3.4449136e-09
3.2699358e-09
3.3267899e-09
3.2932479e-09
3.3905266e-09
3.4359755e-09
3.5687369e-09
3.6905322e-09
3.8785445e-09
4.0952702e-09
4.3822075e-09
4.7334906e-09
5.1714327e-09
5.6883364e-09
6.2666168e-09
6.8588339e-09
7.4112423e-09
7.8769066e-09
8.2350274e-09
8.4804596e-09
8.6217009e-09
8.6843602e-09
8.7002859e-09
8.692659e-09
8.6750435e-09
8.6545643e-09
8.6250388e-09
8.5896105e-09
8.571521e-09
8.5656958e-09
8.5711264e-09
8.5827506e-09
8.6051999e-09
8.6444495e-09
8.6735332e-09
8.6885242e-09
8.6938303e-09
8.6913717e-09
8.6362934e-09
8.5974471e-09
8.5749952e-09
8.5612768e-09
8.5514199e-09
0.00087661011
0.0014141032
0.0010505949
0.00016660094
1.3894285e-08
4.0697263e-09
3.5386465e-09
3.4984676e-09
3.329679e-09
3.3909266e-09
3.3631401e-09
3.4660067e-09
3.519278e-09
3.6604606e-09
3.7943472e-09
3.9961332e-09
4.2315431e-09
4.540731e-09
4.9196709e-09
5.3878453e-09
5.9332442e-09
6.5302171e-09
7.1253699e-09
7.6637911e-09
8.1041479e-09
8.4310262e-09
8.6390763e-09
8.7442659e-09
8.778625e-09
8.7751795e-09
8.7506389e-09
8.7203908e-09
8.6898531e-09
8.6506408e-09
8.6079834e-09
8.5857565e-09
8.5781584e-09
8.5802515e-09
8.5906096e-09
8.6138041e-09
8.6526309e-09
8.6778588e-09
8.6902668e-09
8.6943486e-09
8.6858864e-09
8.6281934e-09
8.5931894e-09
8.5730891e-09
8.5607071e-09
8.5511822e-09
0.00087552891
0.0013668819
0.00095002552
0.00011189598
9.564904e-09
4.1083548e-09
3.5914507e-09
3.5552034e-09
3.3928936e-09
3.4588503e-09
3.4372926e-09
3.5463762e-09
3.6082475e-09
3.7587176e-09
3.9059385e-09
4.122899e-09
4.3787417e-09
4.7122301e-09
5.1208137e-09
5.6202472e-09
6.1929915e-09
6.8049258e-09
7.3976764e-09
7.9174089e-09
8.3299698e-09
8.621062e-09
8.7888512e-09
8.8581701e-09
8.8686102e-09
8.845018e-09
8.8047727e-09
8.7626962e-09
8.7226186e-09
8.6740114e-09
8.6248119e-09
8.5989401e-09
8.5896409e-09
8.5889984e-09
8.5983375e-09
8.6228855e-09
8.6597733e-09
8.6814709e-09
8.6915914e-09
8.6944769e-09
8.6768894e-09
8.6217923e-09
8.5896656e-09
8.5715793e-09
8.5603761e-09
8.5510364e-09
0.00087504762
0.0013166103
0.0008506256
6.6250631e-05
7.4092965e-09
4.1505582e-09
3.647425e-09
3.6154457e-09
3.4598771e-09
3.530948e-09
3.516236e-09
3.6320701e-09
3.703548e-09
3.8642106e-09
4.0261164e-09
4.2597718e-09
4.5379815e-09
4.8979837e-09
5.3381851e-09
5.8694521e-09
6.4675332e-09
7.0898178e-09
7.6745325e-09
8.1714324e-09
8.552996e-09
8.8029664e-09
8.9286662e-09
8.9655349e-09
8.9533719e-09
8.9100751e-09
8.8549946e-09
8.8020801e-09
8.7528835e-09
8.6952446e-09
8.6402482e-09
8.6111762e-09
8.5998794e-09
8.5975346e-09
8.6060389e-09
8.6324026e-09
8.6658091e-09
8.6843861e-09
8.6925866e-09
8.6944607e-09
8.6669993e-09
8.6158051e-09
8.5865945e-09
8.5703332e-09
8.5602713e-09
8.550939e-09
0.00087515247
0.0012642995
0.00075463026
3.3788009e-05
6.2784736e-09
4.1965073e-09
3.7063967e-09
3.6793597e-09
3.5310746e-09
3.6077732e-09
3.6006016e-09
3.7236566e-09
3.8058649e-09
3.9777169e-09
4.1557447e-09
4.4077854e-09
4.710447e-09
5.0992668e-09
5.5727972e-09
6.1357283e-09
6.7560956e-09
7.3833129e-09
7.9544448e-09
8.425078e-09
8.7702806e-09
8.9748122e-09
9.058519e-09
9.0679778e-09
9.0322044e-09
8.9702796e-09
8.9015084e-09
8.8386222e-09
8.780711e-09
8.7144569e-09
8.6543475e-09
8.6224014e-09
8.6091809e-09
8.605723e-09
8.6137128e-09
8.6416426e-09
8.6712221e-09
8.6870138e-09
8.6934396e-09
8.6942162e-09
8.6558828e-09
8.6102244e-09
8.5839437e-09
8.5692447e-09
8.5602707e-09
8.55086e-09
0.00087602163
0.0012093341
0.0006632226
1.5025675e-05
5.6673378e-09
4.2460767e-09
3.769294e-09
3.7476019e-09
3.6070674e-09
3.6899652e-09
3.690885e-09
3.8219526e-09
3.9158724e-09
4.1000451e-09
4.295778e-09
4.5680843e-09
4.8975294e-09
5.3175558e-09
5.8258519e-09
6.4194349e-09
7.0580413e-09
7.6841614e-09
8.2364905e-09
8.6773181e-09
8.9789167e-09
9.1351962e-09
9.1810246e-09
9.1641665e-09
9.1052828e-09
9.0258217e-09
8.9444389e-09
8.8724334e-09
8.8061648e-09
8.7317497e-09
8.6671136e-09
8.6325797e-09
8.6177328e-09
8.6135449e-09
8.6213106e-09
8.6502393e-09
8.6760497e-09
8.6894236e-09
8.6942235e-09
8.6930782e-09
8.6453608e-09
8.6051127e-09
8.5818692e-09
8.5686e-09
8.560277e-09
8.5509194e-09
0.00087785858
0.0011528255
0.00057759437
6.082837e-06
5.3365497e-09
4.3013676e-09
3.8365981e-09
3.8207036e-09
3.6885094e-09
3.7779258e-09
3.7877192e-09
3.9275495e-09
4.0343595e-09
4.2320936e-09
4.4472772e-09
4.7419966e-09
5.1006519e-09
5.5542609e-09
6.0980066e-09
6.7202112e-09
7.3718211e-09
7.9906828e-09
8.5195143e-09
8.9247623e-09
9.1766475e-09
9.2839743e-09
9.297733e-09
9.2533939e-09
9.1726341e-09
9.0768484e-09
8.9839684e-09
8.9036311e-09
8.8293303e-09
8.7471993e-09
8.6785625e-09
8.64179e-09
8.6256766e-09
8.6209747e-09
8.6288069e-09
8.6581815e-09
8.680158e-09
8.6910884e-09
8.6947667e-09
8.6892503e-09
8.635831e-09
8.6006251e-09
8.5802569e-09
8.5682805e-09
8.5605175e-09
8.5514022e-09
0.00088153948
0.001099858
0.0004980299
2.355217e-06
5.1647334e-09
4.3628011e-09
3.9087964e-09
3.8992235e-09
3.7756921e-09
3.8721858e-09
3.8916816e-09
4.041106e-09
4.1622076e-09
4.374747e-09
4.6114768e-09
4.9309688e-09
5.3215429e-09
5.8108778e-09
6.3901598e-09
7.0376998e-09
7.6962872e-09
8.3016367e-09
8.8027411e-09
9.1638877e-09
9.3616294e-09
9.4238713e-09
9.4072792e-09
9.3358412e-09
9.234457e-09
9.123566e-09
9.0202727e-09
8.932343e-09
8.8502906e-09
8.7608599e-09
8.6887336e-09
8.6501149e-09
8.633117e-09
8.6280537e-09
8.6363406e-09
8.6653491e-09
8.6835249e-09
8.6922734e-09
8.6949671e-09
8.6821256e-09
8.6279232e-09
8.5967759e-09
8.5789711e-09
8.5681945e-09
8.5609645e-09
8.5521078e-09
0.00088532279
0.001036776
0.00042461446
9.165289e-07
5.0872469e-09
4.4288848e-09
3.9860375e-09
3.9833149e-09
3.8690356e-09
3.9733085e-09
4.0035283e-09
4.163407e-09
4.3003599e-09
4.5293413e-09
4.7897857e-09
5.1366845e-09
5.5618835e-09
6.0886009e-09
6.702347e-09
7.3706506e-09
8.0294975e-09
8.6154057e-09
9.0829729e-09
9.3915733e-09
9.5329715e-09
9.5571608e-09
9.5086131e-09
9.4115668e-09
9.290938e-09
9.1661854e-09
9.053541e-09
8.9587019e-09
8.8691309e-09
8.7727882e-09
8.6976957e-09
8.657643e-09
8.6401892e-09
8.6348639e-09
8.644149e-09
8.6714815e-09
8.6863314e-09
8.6931571e-09
8.6949164e-09
8.6721542e-09
8.6217583e-09
8.5935234e-09
8.5778291e-09
8.5681387e-09
8.5615146e-09
8.5529553e-09
0.00088969414
0.00097249728
0.0003583246
3.7465655e-07
5.0660059e-09
4.4992156e-09
4.0683958e-09
4.0734642e-09
3.9692888e-09
4.0820925e-09
4.1240373e-09
4.2954301e-09
4.44992e-09
4.6972835e-09
4.9837923e-09
5.3610695e-09
5.8235601e-09
6.3887656e-09
7.0347082e-09
7.7180231e-09
8.3700817e-09
8.9310144e-09
9.3562696e-09
9.6055944e-09
9.6934182e-09
9.6823063e-09
9.6020257e-09
9.4808155e-09
9.3423281e-09
9.2049398e-09
9.083958e-09
8.9828207e-09
8.8859016e-09
8.7830464e-09
8.7055374e-09
8.6644579e-09
8.6467833e-09
8.6414964e-09
8.6522213e-09
8.6765478e-09
8.6889046e-09
8.6939649e-09
8.694694e-09
8.6615843e-09
8.615993e-09
8.5907734e-09
8.5770441e-09
8.5683443e-09
8.5621918e-09
8.5539237e-09
0.0008941956
0.00090304261
0.00029854004
1.6732128e-07
5.07745e-09
4.5750896e-09
4.1570251e-09
4.1705972e-09
4.0772798e-09
4.1993608e-09
4.2540992e-09
4.4381866e-09
4.6121795e-09
4.8800712e-09
5.1953984e-09
5.6061356e-09
6.1082642e-09
6.7119778e-09
7.3863311e-09
8.0778086e-09
8.7159774e-09
9.2461231e-09
9.6179479e-09
9.8040165e-09
9.8457924e-09
9.7981104e-09
9.6875496e-09
9.5438123e-09
9.388878e-09
9.2400655e-09
9.1117056e-09
9.0047912e-09
8.9006134e-09
8.7917145e-09
8.7123678e-09
8.6707092e-09
8.6531574e-09
8.6479888e-09
8.6598877e-09
8.6809734e-09
8.6912039e-09
8.6948819e-09
8.6934318e-09
8.6505131e-09
8.6106775e-09
8.5885742e-09
8.5766816e-09
8.5687798e-09
8.5629539e-09
8.5549671e-09
0.00089885744
0.00083620803
0.00024518705
8.3394602e-08
5.1123847e-09
4.6570121e-09
4.2527147e-09
4.275323e-09
4.1938023e-09
4.3258015e-09
4.3947527e-09
4.5929518e-09
4.7886237e-09
5.0795564e-09
5.4267309e-09
5.8741151e-09
6.4177981e-09