/*--------------------------------*- C++ -*----------------------------------*\
  =========                 |
  \\      /  F ield         | OpenFOAM: The Open Source CFD Toolbox
   \\    /   O peration     | Website:  https://openfoam.org
    \\  /    A nd           | Version:  8
     \\/     M anipulation  |
\*---------------------------------------------------------------------------*/
FoamFile
{
    version     2.0;
    format      ascii;
    class       volVectorField;
    location    "0.250004";
    object      cellDisplacement;
}
// * * * * * * * * * * * * * * * * * * * * * * * * * * * * * * * * * * * * * //

dimensions      [0 1 0 0 0 0 0];

internalField   nonuniform List<vector> 
20000
(
(0.0024109312 0 0.0019180177)
(0.002410914 0 0.0019176241)
(0.0024108754 0 0.0019165763)
(0.0024107925 0 0.0019153627)
(0.0024106455 0 0.0019139531)
(0.0024104069 0 0.0019123273)
(0.0024100383 0 0.00191047)
(0.0024094868 0 0.0019083725)
(0.0024086805 0 0.00190604)
(0.0024075212 0 0.0019034989)
(0.0024058767 0 0.0019008106)
(0.0024035697 0 0.0018980902)
(0.0024003642 0 0.0018955345)
(0.0023959485 0 0.0018934637)
(0.0023899152 0 0.0018923778)
(0.0023817385 0 0.001893041)
(0.0023707476 0 0.0018965805)
(0.0023561024 0 0.0019046673)
(0.0023367746 0 0.001919654)
(0.0023115402 0 0.0019448635)
(0.0022789934 0 0.0019848333)
(0.002237595 0 0.0020455378)
(0.0021857738 0 0.0021344598)
(0.0021220919 0 0.0022605155)
(0.0020454563 0 0.0024335087)
(0.0019553592 0 0.0026630269)
(0.0018521313 0 0.0029567052)
(0.0017369338 0 0.0033185765)
(0.0016119712 0 0.0037467238)
(0.001480122 0 0.0042316248)
(0.0013447428 0 0.0047572373)
(0.0012093551 0 0.0052999423)
(0.001077488 0 0.0058343164)
(0.00095158531 0 0.0063358563)
(0.00083407878 0 0.0067834327)
(0.0007261688 0 0.0071607728)
(0.0006287229 0 0.0074565972)
(0.00054155372 0 0.0076675382)
(0.00046461872 0 0.0077878652)
(0.00039652581 0 0.007820764)
(0.00033764243 0 0.0077612232)
(0.00028576617 0 0.0076079162)
(0.00024051786 0 0.0073441624)
(0.00020082069 0 0.0069781063)
(0.00016649206 0 0.0064860013)
(0.00013577583 0 0.0058516584)
(0.00010799445 0 0.0050329059)
(8.1178978e-05 0 0.0040202052)
(5.3119e-05 0 0.0027091922)
(1.9506733e-05 0 0.00098669109)
(0.0024166587 0 0.0015759433)
(0.0024166494 0 0.001574867)
(0.0024166088 0 0.0015736183)
(0.0024165232 0 0.0015721465)
(0.0024163723 0 0.0015704285)
(0.0024161279 0 0.0015684334)
(0.002415751 0 0.0015661326)
(0.0024151876 0 0.0015635019)
(0.0024143645 0 0.0015605292)
(0.0024131817 0 0.0015572217)
(0.0024115052 0 0.0015536211)
(0.0024091544 0 0.0015498212)
(0.0024058902 0 0.0015459977)
(0.0024013966 0 0.001542449)
(0.002395261 0 0.0015396547)
(0.0023869512 0 0.0015383574)
(0.0023757896 0 0.001539683)
(0.0023609294 0 0.0015452849)
(0.0023413356 0 0.0015575717)
(0.0023157807 0 0.0015799345)
(0.0022828599 0 0.001617065)
(0.0022410421 0 0.0016751458)
(0.0021887774 0 0.0017618821)
(0.0021246679 0 0.0018865165)
(0.0020476776 0 0.0020592081)
(0.0019573699 0 0.0022899034)
(0.001854135 0 0.0025866357)
(0.0017391944 0 0.0029537485)
(0.0016147415 0 0.0033896087)
(0.0014836023 0 0.0038850382)
(0.0013490276 0 0.0044240439)
(0.001214406 0 0.0049832943)
(0.0010831105 0 0.0055370879)
(0.0009575896 0 0.0060604097)
(0.00084018458 0 0.0065314103)
(0.00073215766 0 0.0069331112)
(0.00063438359 0 0.0072534699)
(0.00054677956 0 0.0074880664)
(0.0004692949 0 0.0076312063)
(0.00040069817 0 0.0076850814)
(0.00034119797 0 0.0076451947)
(0.00028882286 0 0.0075097279)
(0.00024308483 0 0.0072634873)
(0.00020295883 0 0.0069122286)
(0.00016817294 0 0.006434021)
(0.00013707876 0 0.0058118371)
(0.00010891215 0 0.0050049384)
(8.1752055e-05 0 0.0039998167)
(5.3343271e-05 0 0.0026954986)
(1.9423169e-05 0 0.00097773442)
(0.0024209353 0 0.0012411963)
(0.0024209235 0 0.0012399116)
(0.0024208793 0 0.0012384094)
(0.0024207887 0 0.0012366435)
(0.002420631 0 0.0012345753)
(0.0024203775 0 0.0012321642)
(0.0024199881 0 0.0012293709)
(0.002419408 0 0.0012261585)
(0.0024185624 0 0.0012225014)
(0.0024173496 0 0.0012183905)
(0.0024156327 0 0.0012138489)
(0.0024132283 0 0.0012089495)
(0.0024098931 0 0.001203845)
(0.0024053062 0 0.0011988101)
(0.0023990493 0 0.0011943001)
(0.0023905831 0 0.0011910397)
(0.0023792229 0 0.0011901358)
(0.0023641139 0 0.0011932623)
(0.0023442156 0 0.0012028519)
(0.0023182972 0 0.0012223888)
(0.0022849565 0 0.001256751)
(0.0022426708 0 0.0013123457)
(0.002189914 0 0.0013970503)
(0.0021253356 0 0.0015204501)
(0.0020479619 0 0.0016930376)
(0.0019574358 0 0.0019250745)
(0.0018542137 0 0.0022249413)
(0.0017395806 0 0.0025972365)
(0.0016157219 0 0.0030405591)
(0.0014854088 0 0.0035460202)
(0.0013517793 0 0.0040977019)
(0.0012180843 0 0.0046725433)
(0.0010875362 0 0.0052446482)
(0.00096256772 0 0.005788594)
(0.00084543178 0 0.0062818945)
(0.00073743941 0 0.0067069395)
(0.00063947184 0 0.0070509572)
(0.00055154493 0 0.0073085401)
(0.00047360727 0 0.0074739448)
(0.00040457642 0 0.0075484431)
(0.00034452952 0 0.0075279297)
(0.00029169886 0 0.007410151)
(0.00024551098 0 0.0071812046)
(0.00020498579 0 0.0068447616)
(0.00016977337 0 0.0063804135)
(0.00013832084 0 0.0057704606)
(0.00010978806 0 0.0049754261)
(8.2297585e-05 0 0.003978236)
(5.3555318e-05 0 0.0026809973)
(1.9343528e-05 0 0.00096878819)
(0.0024237996 0 0.00091363859)
(0.0024237835 0 0.0009121471)
(0.0024237338 0 0.00091039728)
(0.0024236357 0 0.00090833707)
(0.0024234683 0 0.00090592058)
(0.0024232019 0 0.00090309829)
(0.0024227956 0 0.0008998193)
(0.0024221933 0 0.00089603383)
(0.0024213185 0 0.00089170046)
(0.0024200674 0 0.0008867918)
(0.0024183005 0 0.00088131207)
(0.0024158309 0 0.00087531186)
(0.0024124109 0 0.00086892242)
(0.0024077141 0 0.00086239329)
(0.0024013158 0 0.00085615796)
(0.0023926692 0 0.00085091738)
(0.0023810814 0 0.00084777352)
(0.0023656906 0 0.00084839306)
(0.0023454499 0 0.00085528738)
(0.0023191271 0 0.00087199632)
(0.0022853245 0 0.0009036747)
(0.0022425259 0 0.00095696543)
(0.0021892322 0 0.0010397979)
(0.0021241487 0 0.0011621682)
(0.0020463695 0 0.0013348676)
(0.0019556215 0 0.0015684317)
(0.0018524381 0 0.0018715341)
(0.0017381643 0 0.0022489809)
(0.0016149842 0 0.0026995507)
(0.0014856071 0 0.0032146022)
(0.0013530561 0 0.0037782987)
(0.0012204352 0 0.0043678497)
(0.0010907984 0 0.0049572165)
(0.00096653978 0 0.0055206808)
(0.00084983159 0 0.0060351811)
(0.0007420163 0 0.0064825689)
(0.00064398575 0 0.0068493604)
(0.00055584379 0 0.0071292423)
(0.00047754924 0 0.0073163347)
(0.00040815295 0 0.007411069)
(0.00034762957 0 0.0074096211)
(0.00029438765 0 0.007309348)
(0.0002477908 0 0.0070974608)
(0.0002068967 0 0.0067758141)
(0.00017128917 0 0.0063252753)
(0.0001394986 0 0.005727597)
(0.00011062108 0 0.0049444092)
(8.2815242e-05 0 0.0039554815)
(5.3755401e-05 0 0.0026656973)
(1.9269471e-05 0 0.00095983048)
(0.0024252955 0 0.00059312212)
(0.0024252731 0 0.00059143185)
(0.0024252152 0 0.00058944707)
(0.0024251068 0 0.00058710586)
(0.0024249261 0 0.00058435234)
(0.0024246426 0 0.0005811259)
(0.0024242145 0 0.00057736372)
(0.0024235842 0 0.0005730031)
(0.0024226733 0 0.00056798813)
(0.0024213757 0 0.00056227601)
(0.0024195488 0 0.00055585158)
(0.0024170018 0 0.000548746)
(0.0024134823 0 0.00054106547)
(0.0024086579 0 0.00053303587)
(0.0024020966 0 0.00052506279)
(0.002393244 0 0.00051782574)
(0.0023813984 0 0.00051240216)
(0.0023656911 0 0.00051048339)
(0.0023450693 0 0.00051469032)
(0.0023183016 0 0.00052851854)
(0.0022839976 0 0.00055762457)
(0.0022406406 0 0.00060886948)
(0.0021867635 0 0.0006899752)
(0.0021211406 0 0.00081154573)
(0.0020429345 0 0.00098460099)
(0.001951965 0 0.0012198983)
(0.0018488464 0 0.0015263712)
(0.0017349871 0 0.0019089661)
(0.0016125686 0 0.0023666076)
(0.0014842361 0 0.0028908502)
(0.00135289 0 0.003465953)
(0.0012214849 0 0.0040693792)
(0.0010929134 0 0.0046750051)
(0.00096951664 0 0.0052569103)
(0.00085338637 0 0.0057915294)
(0.00074588729 0 0.0062602577)
(0.00064791981 0 0.0066489264)
(0.00055967032 0 0.0069503917)
(0.00048111304 0 0.0071585702)
(0.00041142228 0 0.0072731189)
(0.00035049153 0 0.0072904009)
(0.00029688502 0 0.0072074218)
(0.00024992027 0 0.0070123443)
(0.00020868893 0 0.0067054466)
(0.00017271772 0 0.0062686506)
(0.00014061075 0 0.0056832801)
(0.00011140851 0 0.0049119434)
(8.3303046e-05 0 0.0039315788)
(5.394184e-05 0 0.0026496216)
(1.9198364e-05 0 0.00095085998)
(0.0024254608 0 0.00027949451)
(0.0024254304 0 0.00027759752)
(0.0024253625 0 0.00027536462)
(0.0024252413 0 0.00027272975)
(0.0024250442 0 0.00026963003)
(0.0024247399 0 0.0002659957)
(0.0024242852 0 0.0002617533)
(0.0024236208 0 0.00025682598)
(0.0024226665 0 0.00025114185)
(0.0024213135 0 0.00024463866)
(0.002419416 0 0.00023728136)
(0.0024167788 0 0.00022907699)
(0.0024131443 0 0.00022010897)
(0.0024081735 0 0.00021057541)
(0.0024014267 0 0.0002008548)
(0.0023923403 0 0.0001915936)
(0.0023802044 0 0.00018384803)
(0.0023641458 0 0.00017926656)
(0.0023431032 0 0.0001809281)
(0.0023158545 0 0.00019256051)
(0.0022810173 0 0.00021927587)
(0.002237049 0 0.00026799502)
(0.0021825394 0 0.00034747195)
(0.0021163453 0 0.00046852237)
(0.0020376938 0 0.00064221309)
(0.0019465049 0 0.00087948137)
(0.0018434815 0 0.0011894885)
(0.0017300926 0 0.0015772629)
(0.0016085196 0 0.0020418322)
(0.0014813364 0 0.0025749098)
(0.0013513177 0 0.0031608461)
(0.0012212616 0 0.0037773634)
(0.0010939009 0 0.0043982835)
(0.00097150868 0 0.0049975858)
(0.00085610002 0 0.0055512534)
(0.00074904981 0 0.006040325)
(0.00065126838 0 0.0064499613)
(0.00056301606 0 0.0067722708)
(0.00048428981 0 0.0070009057)
(0.00041437528 0 0.0071348105)
(0.00035310641 0 0.0071704578)
(0.00029918318 0 0.0071045275)
(0.0002518929 0 0.0069259942)
(0.00021035688 0 0.0066337606)
(0.00017405419 0 0.0062106256)
(0.00014165334 0 0.0056375684)
(0.00011214894 0 0.0048780588)
(8.3760403e-05 0 0.0039065389)
(5.411478e-05 0 0.0026327776)
(1.9131564e-05 0 0.00094185556)
(0.0024243305 0 -2.7380179e-05)
(0.0024242903 0 -2.9475534e-05)
(0.0024242099 0 -3.194307e-05)
(0.002424073 0 -3.4858314e-05)
(0.0024238562 0 -3.8294178e-05)
(0.0024235271 0 -4.2331074e-05)
(0.0024230411 0 -4.7054599e-05)
(0.0024223372 0 -5.2554292e-05)
(0.0024213327 0 -5.8916523e-05)
(0.0024199161 0 -6.6219616e-05)
(0.0024179376 0 -7.4518513e-05)
(0.0024151975 0 -8.3826876e-05)
(0.0024114322 0 -9.4088241e-05)
(0.0024062955 0 -0.00010513172)
(0.002399339 0 -0.00011661274)
(0.002389989 0 -0.00012792068)
(0.0023775258 0 -0.00013802777)
(0.002361091 0 -0.0001447678)
(0.002339622 0 -0.00014536993)
(0.0023118527 0 -0.00013574287)
(0.0022763932 0 -0.00011122227)
(0.0022317625 0 -6.4892297e-05)
(0.0021766037 0 1.298821e-05)
(0.0021097973 0 0.00013298621)
(0.0020306834 0 0.00030762053)
(0.0019392808 0 0.00054711152)
(0.0018363854 0 0.00086084258)
(0.0017235266 0 0.001253845)
(0.001602883 0 0.0017252261)
(0.0014769529 0 0.0022668157)
(0.001348378 0 0.0028630549)
(0.0012197984 0 0.0034919227)
(0.0010937846 0 0.0041272142)
(0.00097253295 0 0.0047429021)
(0.00085798117 0 0.0053145699)
(0.00075150781 0 0.0058229953)
(0.00065403032 0 0.0062526855)
(0.00056587831 0 0.0065950812)
(0.0004870745 0 0.006843523)
(0.00041700804 0 0.0069962979)
(0.00035546915 0 0.00704992)
(0.00030127861 0 0.0070007674)
(0.00025370529 0 0.0068384975)
(0.00021189818 0 0.0065608186)
(0.00017529627 0 0.0061512459)
(0.00014262512 0 0.0055904968)
(0.00011283969 0 0.0048428093)
(8.4185414e-05 0 0.003880393)
(5.4272545e-05 0 0.0026151858)
(1.9066742e-05 0 0.00093281973)
(0.002421943 0 -0.00032764782)
(0.0024218911 0 -0.00032994887)
(0.0024217962 0 -0.00033266222)
(0.0024216411 0 -0.00033586875)
(0.0024214015 0 -0.00033964812)
(0.0024210436 0 -0.00034409084)
(0.0024205214 0 -0.00034929322)
(0.0024197719 0 -0.00035535876)
(0.00241871 0 -0.00036238978)
(0.0024172206 0 -0.00037048369)
(0.0024151502 0 -0.00037971531)
(0.0024122937 0 -0.00039012249)
(0.002408381 0 -0.00040167266)
(0.0024030579 0 -0.00041422473)
(0.002395866 0 -0.00042746796)
(0.0023862213 0 -0.00044085497)
(0.0023734239 0 -0.00045292338)
(0.0023565978 0 -0.00046154357)
(0.0023346416 0 -0.00046423709)
(0.0023062959 0 -0.00045699847)
(0.0022701734 0 -0.00043461978)
(0.0022248357 0 -0.00038994287)
(0.0021689637 0 -0.00031339967)
(0.0021015222 0 -0.00019433091)
(0.0020219416 0 -1.9184863e-05)
(0.0019303342 0 0.00022279948)
(0.0018276049 0 0.00054046741)
(0.0017153377 0 0.00093877048)
(0.0015957087 0 0.0014168702)
(0.0014711327 0 0.0019666813)
(0.0013441141 0 0.0025727213)
(0.0012171302 0 0.0032132424)
(0.0010925907 0 0.0038620177)
(0.00097260648 0 0.0044931149)
(0.00085903963 0 0.0050817498)
(0.00075326412 0 0.0056085517)
(0.00065620427 0 0.0060573773)
(0.00056825225 0 0.0064190852)
(0.00048946081 0 0.0066866637)
(0.00041931347 0 0.0068577916)
(0.00035757219 0 0.0069289724)
(0.00030316443 0 0.0068962953)
(0.00025535152 0 0.0067499926)
(0.00021330767 0 0.0064867248)
(0.00017643936 0 0.0060905992)
(0.00014352228 0 0.0055421269)
(0.00011347944 0 0.0048062258)
(8.4577426e-05 0 0.0038531527)
(5.4415255e-05 0 0.0025968558)
(1.9005071e-05 0 0.00092373276)
(0.002418337 0 -0.00062144043)
(0.0024182714 0 -0.00062394135)
(0.0024181595 0 -0.00062689129)
(0.0024179831 0 -0.00063038031)
(0.0024177171 0 -0.00063449769)
(0.0024173262 0 -0.00063934366)
(0.0024167626 0 -0.00064502675)
(0.0024159612 0 -0.00065166306)
(0.0024148341 0 -0.00065936986)
(0.0024132627 0 -0.00066826018)
(0.0024110889 0 -0.00067842925)
(0.002408102 0 -0.00068993557)
(0.0024040247 0 -0.00070277171)
(0.0023984938 0 -0.00071681803)
(0.0023910398 0 -0.00073177345)
(0.0023810904 0 -0.00074704508)
(0.002367942 0 -0.00076088827)
(0.0023506736 0 -0.00077159364)
(0.002328185 0 -0.00077644226)
(0.0022992133 0 -0.00077143466)
(0.0022623803 0 -0.00075110502)
(0.0022162843 0 -0.00070804666)
(0.0021596587 0 -0.00063257178)
(0.0020915553 0 -0.00051355077)
(0.0020114813 0 -0.00033830357)
(0.0019197062 0 -9.3516067e-05)
(0.0018171851 0 0.00022832377)
(0.001705575 0 0.00063200692)
(0.0015870471 0 0.0011167497)
(0.0014639253 0 0.0016745163)
(0.0013385703 0 0.0022898874)
(0.0012132956 0 0.0029414035)
(0.0010903488 0 0.0036028108)
(0.00097175161 0 0.0042483764)
(0.00085928933 0 0.0048529687)
(0.00075432717 0 0.005397185)
(0.00065779315 0 0.005864229)
(0.00057013823 0 0.0062444647)
(0.00049144634 0 0.0065304949)
(0.0004212893 0 0.0067194369)
(0.00035941201 0 0.0068077381)
(0.00030483792 0 0.0067912114)
(0.00025682885 0 0.0066605644)
(0.0002145833 0 0.0064115425)
(0.00017748147 0 0.0060287321)
(0.00014434363 0 0.0054924942)
(0.00011406551 0 0.0047683613)
(8.4934543e-05 0 0.0038248523)
(5.4541219e-05 0 0.0025778069)
(1.8944406e-05 0 0.00091459895)
(0.0024135473 0 -0.00090889648)
(0.002413466 0 -0.00091160244)
(0.0024133347 0 -0.00091479795)
(0.0024131342 0 -0.00091857799)
(0.0024128381 0 -0.00092303908)
(0.0024124097 0 -0.00092829102)
(0.0024117995 0 -0.00093445259)
(0.0024109397 0 -0.00094165438)
(0.0024097395 0 -0.00095002913)
(0.0024080764 0 -0.00095970952)
(0.0024057874 0 -0.00097081088)
(0.0024026557 0 -0.00098341696)
(0.0023983964 0 -0.00099754631)
(0.0023926376 0 -0.0010131129)
(0.002384902 0 -0.0010298442)
(0.0023746296 0 -0.0010466573)
(0.0023610936 0 -0.0010623732)
(0.0023433454 0 -0.0010751172)
(0.0023202792 0 -0.0010820823)
(0.0022906315 0 -0.0010792069)
(0.0022530376 0 -0.0010608258)
(0.0022061343 0 -0.0010192853)
(0.0021487167 0 -0.00094461862)
(0.0020799144 0 -0.00082535726)
(0.0019993685 0 -0.00064906098)
(0.001907444 0 -0.00040182274)
(0.001805177 0 -7.5553344e-05)
(0.0016942921 0 0.00033360011)
(0.0015769533 0 0.00082492499)
(0.0014553834 0 0.0013904044)
(0.0013317953 0 0.0020146576)
(0.0012083353 0 0.0026765488)
(0.001087091 0 0.0033497672)
(0.00096999124 0 0.0040088913)
(0.00085875144 0 0.0046289934)
(0.00075470487 0 0.0051891463)
(0.00065879968 0 0.0056734886)
(0.00057153487 0 0.0060714593)
(0.00049302744 0 0.0063752419)
(0.00042293048 0 0.0065814342)
(0.00036098262 0 0.0066863956)
(0.00030629326 0 0.0066856666)
(0.00025813204 0 0.0065703491)
(0.00021572036 0 0.0063353775)
(0.00017841826 0 0.0059657329)
(0.0001450855 0 0.0054416629)
(0.00011459664 0 0.004729247)
(8.5256096e-05 0 0.0037955048)
(5.4650516e-05 0 0.0025580503)
(1.8885765e-05 0 0.00090540071)
(0.0024076049 0 -0.0011901418)
(0.002407506 0 -0.0011930472)
(0.0024073529 0 -0.001196479)
(0.0024071254 0 -0.0012005413)
(0.0024067958 0 -0.0012053398)
(0.0024063258 0 -0.0012109942)
(0.0024056636 0 -0.0012176356)
(0.0024047391 0 -0.0012254067)
(0.002403458 0 -0.0012344559)
(0.0024016934 0 -0.0012449322)
(0.0023992771 0 -0.001256972)
(0.0023959853 0 -0.0012706824)
(0.0023915244 0 -0.0012861143)
(0.0023855116 0 -0.0013032268)
(0.0023774884 0 -0.001321543)
(0.0023668803 0 -0.0013399679)
(0.0023529129 0 -0.001357511)
(0.0023346415 0 -0.0013722378)
(0.0023109498 0 -0.0013812815)
(0.0022805746 0 -0.001380464)
(0.0022421679 0 -0.0013639373)
(0.00219441 0 -0.0013237999)
(0.0021361667 0 -0.0012496716)
(0.0020666517 0 -0.001129858)
(0.0019856465 0 -0.00095152641)
(0.0018935711 0 -0.0007021767)
(0.0017916297 0 -0.00037120106)
(0.0016815419 0 4.3507478e-05)
(0.0015654824 0 0.00054136326)
(0.0014455611 0 0.0011143305)
(0.0013238381 0 0.0017470398)
(0.0012022925 0 0.0024187172)
(0.0010828692 0 0.0031036751)
(0.00096737054 0 0.0037754843)
(0.00085744851 0 0.0044101189)
(0.000754411 0 0.0049852044)
(0.00065923341 0 0.0054858262)
(0.00057244547 0 0.0059002342)
(0.00049420421 0 0.0062210554)
(0.00042423639 0 0.0064439179)
(0.00036228201 0 0.0065650612)
(0.00030752858 0 0.006579758)
(0.000259259 0 0.0064794291)
(0.00021671716 0 0.0062582932)
(0.00017924805 0 0.0059016491)
(0.0001457468 0 0.0053896695)
(0.00011507024 0 0.0046889371)
(8.554018e-05 0 0.0037651474)
(5.4741447e-05 0 0.0025376054)
(1.8827159e-05 0 0.0008961434)
(0.0024005458 0 -0.0014653093)
(0.0024004272 0 -0.0014684194)
(0.0024002497 0 -0.0014720956)
(0.002399992 0 -0.0014764472)
(0.0023996251 0 -0.0014815873)
(0.0023991088 0 -0.0014876454)
(0.0023983893 0 -0.0014947633)
(0.0023973932 0 -0.0015030979)
(0.0023960228 0 -0.0015128124)
(0.0023941466 0 -0.001524075)
(0.0023915905 0 -0.0015370406)
(0.0023881231 0 -0.0015518375)
(0.0023834414 0 -0.0015685339)
(0.0023771663 0 -0.0015871005)
(0.0023688419 0 -0.0016068245)
(0.0023578561 0 -0.0016269886)
(0.0023434229 0 -0.0016463872)
(0.0023245856 0 -0.0016630924)
(0.0023002199 0 -0.0016741686)
(0.0022690644 0 -0.0016753405)
(0.0022297925 0 -0.0016605661)
(0.0021811359 0 -0.0016217144)
(0.0021220398 0 -0.0015478056)
(0.0020518007 0 -0.0014271106)
(0.0019703336 0 -0.0012463587)
(0.0018781707 0 -0.00099390106)
(0.0017766001 0 -0.00065858474)
(0.0016673823 0 -0.00023823992)
(0.001552694 0 0.00026610324)
(0.0014345161 0 0.00084634608)
(0.0013147796 0 0.0014878117)
(0.0011952508 0 0.0021688871)
(0.0010777367 0 0.0028648859)
(0.00096391733 0 0.0035485102)
(0.00085539468 0 0.0041961523)
(0.00075346222 0 0.0047856367)
(0.00065909828 0 0.0053015395)
(0.00057287083 0 0.005731462)
(0.00049497557 0 0.0060681457)
(0.00042520403 0 0.0063070752)
(0.00036330576 0 0.0064439046)
(0.00030853919 0 0.0064736315)
(0.00026020526 0 0.0063879367)
(0.00021756951 0 0.0061803954)
(0.00017996684 0 0.0058365694)
(0.00014632404 0 0.0053365802)
(0.00011548513 0 0.0046474631)
(8.5786118e-05 0 0.0037337941)
(5.4814073e-05 0 0.0025164851)
(1.8769485e-05 0 0.00088681055)
(0.0023924016 0 -0.0017345199)
(0.0023922611 0 -0.0017378296)
(0.0023920567 0 -0.001741742)
(0.0023917658 0 -0.0017463753)
(0.0023913578 0 -0.001751852)
(0.0023907907 0 -0.0017583113)
(0.002390008 0 -0.0017659073)
(0.0023889336 0 -0.0017748092)
(0.0023874655 0 -0.0017851952)
(0.0023854674 0 -0.0017972489)
(0.0023827589 0 -0.0018111452)
(0.002379101 0 -0.0018270345)
(0.0023741814 0 -0.0018450144)
(0.0023676293 0 -0.0018648835)
(0.0023589774 0 -0.0018861022)
(0.0023475836 0 -0.0019079415)
(0.002332648 0 -0.0019291668)
(0.002313201 0 -0.0019478046)
(0.0022881102 0 -0.0019608805)
(0.0022561205 0 -0.0019639805)
(0.0022159318 0 -0.0019508334)
(0.0021663683 0 -0.0019123838)
(0.0021064023 0 -0.0018383169)
(0.002035431 0 -0.0017164706)
(0.0019534893 0 -0.0015336325)
(0.0018612951 0 -0.001277051)
(0.0017601232 0 -0.00093771836)
(0.0016518694 0 -0.00051169693)
(0.0015386475 0 -9.0653989e-07)
(0.0014223551 0 0.00058719332)
(0.0013047053 0 0.0012373313)
(0.001187264 0 0.0019273752)
(0.0010717133 0 0.0026329981)
(0.00095965089 0 0.0033274692)
(0.00085261119 0 0.0039871509)
(0.00075186908 0 0.0045900425)
(0.00065840379 0 0.005120312)
(0.00057281755 0 0.0055653133)
(0.00049534284 0 0.0059170257)
(0.00042583444 0 0.0061710305)
(0.00036405332 0 0.0063230333)
(0.00030932415 0 0.0063673788)
(0.00026096939 0 0.0062959507)
(0.00021827612 0 0.0061017465)
(0.00018057325 0 0.0057705413)
(0.00014681625 0 0.0052824322)
(0.00011583877 0 0.00460488)
(8.599199e-05 0 0.0037014847)
(5.4866668e-05 0 0.002494709)
(1.8710862e-05 0 0.00087740836)
(0.0023832026 0 -0.0019979002)
(0.0023830381 0 -0.002001414)
(0.0023828042 0 -0.0020055695)
(0.002382477 0 -0.0020104914)
(0.0023820242 0 -0.0020163096)
(0.0023814016 0 -0.0020231734)
(0.0023805502 0 -0.0020312469)
(0.0023793903 0 -0.0020407126)
(0.0023778159 0 -0.0020517633)
(0.0023756852 0 -0.0020645999)
(0.0023728108 0 -0.0020794161)
(0.0023689447 0 -0.0020963834)
(0.0023637746 0 -0.0021156357)
(0.0023569332 0 -0.0021367944)
(0.0023479246 0 -0.0021594826)
(0.0023360897 0 -0.0021829622)
(0.0023206124 0 -0.0022059699)
(0.0023005091 0 -0.0022265087)
(0.0022746398 0 -0.0022415507)
(0.0022417632 0 -0.0022465025)
(0.0022006658 0 -0.0022341796)
(0.0021501721 0 -0.0021957765)
(0.0020892888 0 -0.0021211832)
(0.0020175629 0 -0.0019978389)
(0.0019351742 0 -0.0018126206)
(0.0018429671 0 -0.0015522573)
(0.0017422561 0 -0.0012086477)
(0.0016350668 0 -0.00077685405)
(0.0015234725 0 -0.0002587814)
(0.0014091771 0 0.00033737543)
(0.0012936555 0 0.00099535192)
(0.0011783589 0 0.001693604)
(0.0010648364 0 0.0024080333)
(0.00095460069 0 0.0031124299)
(0.00084912014 0 0.0037832187)
(0.0007496466 0 0.0043985614)
(0.00065715933 0 0.0049423008)
(0.00057229025 0 0.0054015507)
(0.00049530801 0 0.0057678996)
(0.00042612447 0 0.0060359591)
(0.00036452183 0 0.0062026065)
(0.0003098799 0 0.0062611396)
(0.00026154772 0 0.006203599)
(0.00021883332 0 0.0060224515)
(0.00018106364 0 0.0057036533)
(0.00014722014 0 0.0052272934)
(0.00011613004 0 0.0045612197)
(8.6157119e-05 0 0.0036682344)
(5.4899261e-05 0 0.0024722913)
(1.8652091e-05 0 0.00086792309)
(0.0023729845 0 -0.0022555682)
(0.0023727937 0 -0.0022592849)
(0.0023725274 0 -0.0022636818)
(0.0023721604 0 -0.0022688904)
(0.0023716584 0 -0.002275049)
(0.0023709751 0 -0.0022823158)
(0.0023700486 0 -0.0022908663)
(0.0023687957 0 -0.0023008954)
(0.0023671057 0 -0.0023126099)
(0.0023648311 0 -0.0023262265)
(0.0023617773 0 -0.0023419544)
(0.0023576877 0 -0.0023599771)
(0.0023522523 0 -0.0023804254)
(0.0023451009 0 -0.0024029068)
(0.002335708 0 -0.0024270637)
(0.0023233982 0 -0.0024521555)
(0.0023073386 0 -0.0024769126)
(0.0022865295 0 -0.0024993006)
(0.0022598262 0 -0.0025162978)
(0.0022260686 0 -0.0025224204)
(0.0021840308 0 -0.0025106121)
(0.0021325207 0 -0.0024725327)
(0.002070694 0 -0.0023971786)
(0.0019982156 0 -0.0022720018)
(0.001915434 0 -0.0020833955)
(0.0018232201 0 -0.0018194873)
(0.0017230973 0 -0.0014707803)
(0.001617115 0 -0.0010328695)
(0.0015072822 0 -0.00050701292)
(0.0013950198 0 9.650433e-05)
(0.0012816775 0 0.0007617161)
(0.0011685787 0 0.0014674652)
(0.0010571431 0 0.0021899243)
(0.00094879741 0 0.0029033737)
(0.00084494507 0 0.0035843767)
(0.00074681234 0 0.0042112513)
(0.00065537682 0 0.0047675862)
(0.0005712967 0 0.0052402684)
(0.00049487385 0 0.0056205223)
(0.00042607838 0 0.0059023052)
(0.00036471204 0 0.0060827244)
(0.00031020636 0 0.0061549997)
(0.00026193947 0 0.0061109563)
(0.00021924021 0 0.0059425714)
(0.0001814369 0 0.0056359531)
(0.00014753483 0 0.0051712017)
(0.00011635653 0 0.0045165388)
(8.6279591e-05 0 0.0036340854)
(5.4910125e-05 0 0.0024492529)
(1.8591368e-05 0 0.00085836023)
(0.002361773 0 -0.0025076416)
(0.0023615537 0 -0.002511561)
(0.0023612522 0 -0.0025161991)
(0.0023608419 0 -0.0025216944)
(0.0023602866 0 -0.0025281934)
(0.0023595376 0 -0.0025358641)
(0.0023585298 0 -0.0025448932)
(0.0023571761 0 -0.0025554881)
(0.0023553609 0 -0.0025678719)
(0.0023529306 0 -0.0025822797)
(0.0023496826 0 -0.002598945)
(0.0023453511 0 -0.0026180885)
(0.002339638 0 -0.0026396317)
(0.0023321567 0 -0.0026633841)
(0.0023223522 0 -0.002688967)
(0.0023095328 0 -0.0027156379)
(0.0022928484 0 -0.0027420907)
(0.0022712833 0 -0.0027662358)
(0.0022437382 0 -0.0027847603)
(0.0022090717 0 -0.0027917348)
(0.0021659994 0 -0.002780736)
(0.0021134349 0 -0.0027427671)
(0.0020506487 0 -0.0026663313)
(0.0019774262 0 -0.002538998)
(0.0018942851 0 -0.0023465378)
(0.0018021702 0 -0.0020781486)
(0.0017027328 0 -0.0017242271)
(0.001598135 0 -0.0012790272)
(0.0014901194 0 -0.000745949)
(0.0013799369 0 -0.0001355653)
(0.0012688225 0 0.0005363167)
(0.0011579693 0 0.001248898)
(0.0010486726 0 0.0019786524)
(0.00094227271 0 0.0027003284)
(0.00084011059 0 0.003390691)
(0.00074338403 0 0.004028214)
(0.00065306825 0 0.0045962953)
(0.00056984406 0 0.0050816086)
(0.00049404548 0 0.0054750402)
(0.00042569772 0 0.005770242)
(0.00036462086 0 0.0059635353)
(0.00031030111 0 0.006049091)
(0.00026214179 0 0.006018145)
(0.00021949368 0 0.005862209)
(0.0001816898 0 0.0055675285)
(0.00014775728 0 0.0051142264)
(0.00011651717 0 0.0044708695)
(8.6358716e-05 0 0.003599054)
(5.4899246e-05 0 0.0024256086)
(1.8529438e-05 0 0.00084870841)
(0.0023495959 0 -0.0027542351)
(0.0023493455 0 -0.0027583574)
(0.002349006 0 -0.0027632367)
(0.002348549 0 -0.0027690185)
(0.0023479361 0 -0.0027758573)
(0.002347116 0 -0.0027839308)
(0.0023460204 0 -0.0027934364)
(0.0023445579 0 -0.002804595)
(0.0023426076 0 -0.0028176434)
(0.0023400089 0 -0.002832833)
(0.0023365502 0 -0.0028504155)
(0.002331969 0 -0.0028706479)
(0.00232597 0 -0.0028932947)
(0.0023181301 0 -0.0029183033)
(0.0023078818 0 -0.0029452983)
(0.0022945159 0 -0.0029735137)
(0.0022771636 0 -0.0030016346)
(0.0022548039 0 -0.0030275674)
(0.0022264006 0 -0.0030470109)
(0.0021907463 0 -0.0030550332)
(0.0021465871 0 -0.003044685)
(0.0020929346 0 -0.0030066151)
(0.0020291835 0 -0.00292869)
(0.0019552771 0 -0.002798255)
(0.001871792 0 -0.002602122)
(0.0017798762 0 -0.0023282722)
(0.0016812701 0 -0.001968521)
(0.0015781882 0 -0.0015158201)
(0.0014720332 0 -0.00097585196)
(0.001363978 0 -0.00035905605)
(0.0012551377 0 0.00031897109)
(0.0011465743 0 0.0010377638)
(0.0010394625 0 0.00177412)
(0.00093505841 0 0.0025032413)
(0.00083464191 0 0.0032021495)
(0.00073938105 0 0.0038494751)
(0.00065024754 0 0.0044284794)
(0.00056794201 0 0.0049256421)
(0.00049282899 0 0.0053315309)
(0.00042498465 0 0.0056395384)
(0.0003642501 0 0.0058451202)
(0.00031016496 0 0.0059434916)
(0.00026215455 0 0.0059252352)
(0.00021959325 0 0.0057814231)
(0.00018182152 0 0.0054984266)
(0.00014788675 0 0.005056406)
(0.00011660962 0 0.0044242699)
(8.6392591e-05 0 0.0035631848)
(5.4864893e-05 0 0.0024013807)
(1.8464562e-05 0 0.00083897326)
(0.0023364807 0 -0.0029954609)
(0.0023361969 0 -0.0029997862)
(0.0023358164 0 -0.0030049066)
(0.002335309 0 -0.0030109744)
(0.0023346342 0 -0.0030181525)
(0.0023337379 0 -0.0030266276)
(0.0023325481 0 -0.0030366077)
(0.0023309691 0 -0.0030483252)
(0.0023288744 0 -0.0030620301)
(0.0023260964 0 -0.003077986)
(0.0023224154 0 -0.0030964517)
(0.0023175716 0 -0.003117677)
(0.0023112632 0 -0.0031414799)
(0.0023030398 0 -0.0031677633)
(0.0022923172 0 -0.0031961535)
(0.0022783663 0 -0.0032258867)
(0.0022602988 0 -0.0032555974)
(0.0022371301 0 -0.0032830062)
(0.0022078239 0 -0.0033035021)
(0.0021711115 0 -0.0033123917)
(0.0021258126 0 -0.0033025189)
(0.002071092 0 -0.0032634702)
(0.002006402 0 -0.0031836364)
(0.0019318245 0 -0.0030496727)
(0.0018480384 0 -0.0028494698)
(0.0017563801 0 -0.0025705897)
(0.00165885 0 -0.0022030735)
(0.0015573197 0 -0.0017434429)
(0.0014530769 0 -0.0011969227)
(0.0013471966 0 -0.00057413415)
(0.0012406742 0 0.00010954899)
(0.0011344397 0 0.0008339736)
(0.0010295528 0 0.0015762784)
(0.00092718731 0 0.0023121067)
(0.00082856519 0 0.0030187854)
(0.000734823 0 0.0036751035)
(0.00064692873 0 0.0042642355)
(0.00056559966 0 0.004772485)
(0.0004912297 0 0.005190121)
(0.00042394154 0 0.0055103281)
(0.00036360228 0 0.0057278982)
(0.00030979659 0 0.0058383259)
(0.0002619757 0 0.0058323432)
(0.00021953635 0 0.0057003139)
(0.0001818292 0 0.0054287344)
(0.00014792041 0 0.0049978108)
(0.00011663294 0 0.0043767728)
(8.6380556e-05 0 0.003526496)
(5.4807008e-05 0 0.0023765847)
(1.8397409e-05 0 0.00082914577)
(0.0023224536 0 -0.0032314287)
(0.0023221339 0 -0.0032359573)
(0.0023217095 0 -0.0032413194)
(0.0023211481 0 -0.0032476741)
(0.0023204069 0 -0.0032551927)
(0.0023194287 0 -0.0032640715)
(0.0023181378 0 -0.0032745299)
(0.0023164337 0 -0.0032868144)
(0.0023141836 0 -0.003301191)
(0.0023112122 0 -0.0033179453)
(0.0023072904 0 -0.0033373697)
(0.0023021726 0 -0.0033595169)
(0.0022955382 0 -0.0033844028)
(0.0022869074 0 -0.0034119098)
(0.0022756787 0 -0.0034416635)
(0.0022611046 0 -0.0034728798)
(0.0022422846 0 -0.0035042182)
(0.0022182897 0 -0.0035325765)
(0.0021880077 0 -0.0035542222)
(0.0021501827 0 -0.0035638438)
(0.0021037531 0 -0.0035538346)
(0.0020479672 0 -0.0035133466)
(0.00198232 0 -0.0034311688)
(0.0019070653 0 -0.0032938322)
(0.0018230776 0 -0.0030886151)
(0.0017318475 0 -0.0028039011)
(0.00163551 0 -0.0024286162)
(0.0015355739 0 -0.0019622104)
(0.0014332989 0 -0.0014094302)
(0.0013296414 0 -0.00078103591)
(0.0012254787 0 -9.2149098e-05)
(0.0011216084 0 0.00063736737)
(0.0010189811 0 0.001385006)
(0.00091869147 0 0.0021268441)
(0.00082190641 0 0.0028405586)
(0.0007297304 0 0.0035050958)
(0.00064312707 0 0.0041035888)
(0.00056282808 0 0.0046221846)
(0.00048925505 0 0.0050508693)
(0.00042257492 0 0.0053826767)
(0.00036268095 0 0.0056119485)
(0.00030919614 0 0.0057336637)
(0.00026160567 0 0.0057395338)
(0.00021932286 0 0.0056189374)
(0.00018171229 0 0.0053584982)
(0.00014785766 0 0.0049384796)
(0.00011658487 0 0.0043284377)
(8.6320696e-05 0 0.0034890335)
(5.472387e-05 0 0.0023512447)
(1.832632e-05 0 0.00081923166)
(0.0023075434 0 -0.0034622465)
(0.0023071852 0 -0.0034669788)
(0.0023067135 0 -0.0034725827)