/*--------------------------------*- C++ -*----------------------------------*\
  =========                 |
  \\      /  F ield         | OpenFOAM: The Open Source CFD Toolbox
   \\    /   O peration     | Website:  https://openfoam.org
    \\  /    A nd           | Version:  8
     \\/     M anipulation  |
\*---------------------------------------------------------------------------*/
FoamFile
{
    version     2.0;
    format      ascii;
    class       volScalarField;
    location    "0.250004";
    object      Ma;
}
// * * * * * * * * * * * * * * * * * * * * * * * * * * * * * * * * * * * * * //

dimensions      [0 0 0 0 0 0 0];

internalField   nonuniform List<scalar> 
20000
(
0.67900376
0.80451153
0.88861505
0.96284092
1.0335777
1.1039963
1.1267403
1.1370374
1.128616
1.133068
1.1277957
1.1293549
1.1251928
1.1245789
1.1205785
1.1179701
1.1131024
1.1081292
1.1012233
1.0930612
1.0827984
1.0703054
1.0552557
1.0372758
1.0162124
0.99238911
0.96642461
0.93907921
0.91148573
0.88496948
0.86057234
0.8389692
0.82052278
0.80521125
0.79283674
0.78300878
0.77534859
0.7694563
0.76499136
0.76161036
0.75903036
0.75709914
0.75561637
0.75440424
0.75327407
0.75251513
0.7516034
0.75130458
0.75038995
0.75249731
0.69628268
0.8223933
0.90651842
0.98059135
1.0509762
1.1199886
1.1378299
1.1476521
1.1390748
1.1434631
1.1379878
1.1394538
1.1350809
1.1342915
1.1300228
1.1270862
1.1218231
1.1163532
1.1088894
1.1000582
1.0890137
1.0755987
1.0594974
1.0404782
1.0185464
0.99385864
0.96730274
0.93956821
0.91171868
0.88493825
0.86036711
0.83870149
0.82025614
0.80498634
0.79267823
0.7829216
0.77530846
0.76944586
0.76499613
0.76161388
0.75902172
0.75707681
0.75557703
0.75432927
0.75317767
0.7523709
0.75155764
0.75098805
0.75047349
0.75264609
0.70847362
0.8352565
0.91962413
0.99383554
1.0642858
1.1320843
1.1455064
1.155024
1.1462425
1.1506342
1.1449542
1.1463362
1.1417674
1.1407738
1.1362263
1.1329138
1.1272394
1.1212437
1.1132752
1.1038561
1.0922272
1.0782741
1.0616955
1.0422312
1.0198495
0.99470483
0.96768797
0.9394717
0.91123952
0.88417159
0.85946811
0.83782066
0.819483
0.80436174
0.7922035
0.78258371
0.77507583
0.76928994
0.76488881
0.76153082
0.75895162
0.75701353
0.75551177
0.75424061
0.75307458
0.75226077
0.7514637
0.75092677
0.75049644
0.75270163
0.71780919
0.84523545
0.92986263
1.0042528
1.0748699
1.1412872
1.1505283
1.1599009
1.1509255
1.1553292
1.1494543
1.1507396
1.1459277
1.1446763
1.1398239
1.136156
1.1301429
1.1237239
1.1153998
1.1055943
1.0936892
1.0794355
1.0625417
1.042793
1.0201377
0.99466741
0.9671919
0.93850769
0.90988978
0.88269829
0.85804224
0.83655499
0.81843149
0.80353622
0.79158815
0.78214921
0.77477775
0.76909005
0.76475305
0.76142969
0.75886961
0.7569425
0.75544013
0.75414452
0.75296312
0.75212326
0.75134837
0.75086729
0.75054239
0.75276011
0.72497309
0.85294558
0.93790693
1.012531
1.0834428
1.1482959
1.153619
1.162984
1.1537877
1.1582055
1.1521195
1.1532593
1.1482259
1.1467217
1.1416239
1.1376875
1.1314888
1.124855
1.1163649
1.1063271
1.0942492
1.0797925
1.0626909
1.0426234
1.0195879
0.99367885
0.96560892
0.93648768
0.90768721
0.88052522
0.85605715
0.83485409
0.81704902
0.80246236
0.79078796
0.78157773
0.77437983
0.76881798
0.76456515
0.76129128
0.75876225
0.75685544
0.75535701
0.75403991
0.7528469
0.75196646
0.75122613
0.75084663
0.75058754
0.75279819
0.73068658
0.85921485
0.94448481
1.0193532
1.0905943
1.153586
1.1552938
1.1647255
1.1552682
1.1596966
1.1533764
1.1543439
1.1492573
1.1476273
1.1424533
1.1383693
1.1320639
1.1252825
1.1166821
1.1064614
1.0941768
1.0794152
1.0619773
1.0414192
1.0178322
0.9913905
0.96291111
0.93353274
0.90469441
0.87771676
0.85357932
0.8327792
0.81538652
0.80118031
0.78983526
0.78089562
0.7739026
0.76848942
0.76433732
0.76112502
0.75863626
0.7567565
0.75526347
0.75392559
0.75272317
0.7517903
0.75111799
0.75083691
0.75064747
0.75283825
0.73523161
0.86439688
0.95004633
1.0251677
1.0967743
1.1575469
1.1560203
1.1655263
1.1558498
1.1603705
1.1538442
1.1548619
1.1496889
1.1479927
1.1427677
1.1385641
1.1321742
1.1252011
1.1164163
1.1059158
1.0932825
1.0780527
1.0601117
1.0390429
1.0149609
0.98806305
0.95923622
0.92971795
0.90098973
0.87433066
0.85064584
0.83035338
0.81345817
0.79969869
0.78873436
0.78010443
0.77334606
0.76810353
0.76406806
0.76092937
0.75849084
0.7566451
0.75515817
0.75380079
0.75259061
0.75162101
0.75103814
0.75084898
0.75073113
0.75288619
0.73932164
0.86911169
0.95511635
1.0304721
1.1024298
1.1606267
1.1563567
1.1659275
1.1561791
1.1606698
1.1541162
1.1550809
1.1497543
1.1479629
1.1426532
1.1382704
1.1317296
1.1244538
1.115363
1.1044498
1.0914103
1.0757276
1.0573054
1.0357144
1.0111193
0.98378581
0.95469989
0.92515606
0.89665595
0.87043526
0.84731233
0.82762005
0.81129647
0.79804127
0.78750254
0.77921678
0.7727192
0.76766653
0.76376165
0.76070728
0.75832821
0.75652216
0.75504035
0.75366407
0.75244611
0.75147901
0.75097859
0.75088377
0.75087633
0.75295387
0.74314416
0.87353317
0.95990525
1.035489
1.1077151
1.1630374
1.1562873
1.1661053
1.1561681
1.1607133
1.1540025
1.155048
1.1493884
1.1474229
1.1419576
1.1373033
1.1305319
1.1229297
1.1135391
1.1022357
1.0887831
1.0726129
1.0536731
1.0315449
1.0064428
0.97870581
0.949415
0.91993605
0.89177196
0.86609466
0.84362843
0.82461648
0.80892869
0.79622758
0.78615344
0.77824208
0.77202836
0.76718253
0.76342058
0.76046038
0.75814954
0.75638782
0.75490905
0.75351353
0.75229096
0.75137064
0.75093771
0.75090859
0.75116765
0.75304924
0.74669402
0.87758635
0.96433987
1.0401619
1.1124897
1.1647316
1.1557662
1.1657408
1.155573
1.1599972
1.1532425
1.1539563
1.1484146
1.1462513
1.140634
1.1357233
1.1287411
1.1208106
1.1111023
1.0993847
1.085497
1.0688256
1.0493505
1.0266631
1.0010402
0.97291701
0.94347867
0.91414875
0.88641522
0.86137425
0.8396472
0.82138393
0.80638578
0.79428025
0.78470338
0.77719204
0.77128171
0.76665703
0.76304852
0.76019136
0.75795643
0.75624224
0.75476358
0.7533463
0.75213009
0.75128603
0.75090942
0.75092149
0.75153741
0.75317148
0.74971864
0.88110201
0.96828289
1.0443885
1.1165893
1.1656169
1.1547509
1.1645943
1.1544219
1.1588651
1.1519771
1.1526267
1.1469486
1.1445866
1.1388248
1.1336483
1.126446
1.1181789
1.1081444
1.0960041
1.0816603
1.0644576
1.0444133
1.0211419
0.99499099
0.96650441
0.93697198
0.90787017
0.88065556
0.85633422
0.83541793
0.81796116
0.80369709
0.79222096
0.78316807
0.77607794
0.77048714
0.76609529
0.76264893
0.75990293
0.75775025
0.75608518
0.75460343
0.75315923
0.75196394
0.75121281
0.75089169
0.7509434
0.75195149
0.75330979
0.75239734
0.88424241
0.97188693
1.0483489
1.1201071
1.1657903
1.1533448
1.1632879
1.1529319
1.1573289
1.1503178
1.1508277
1.1450691
1.1425103
1.1366085
1.1311619
1.123736
1.1151225
1.1047443
1.0921598
1.0773312
1.0595698
1.0389258
1.0150463
0.98836076
0.95953642
0.92996857
0.90117369
0.87456038
0.85103342
0.83098951
0.81438691
0.8008922
0.7900717
0.7815637
0.77491154
0.76965297
0.76550294
0.76222551
0.75959791
0.75753236
0.75591603
0.75442818
0.75295009
0.75179071
0.75114813
0.75090724
0.75100319
0.75236987
0.75344931
0.75476761
0.88708178
0.97522757
1.0521493
1.1230683
1.1652984
1.1516226
1.1615689
1.1510983
1.1554551
1.1483392
1.1487338
1.1428709
1.1400999
1.134053
1.128323
1.1206614
1.1116877
1.1009465
1.0878965
1.0725532
1.0542013
1.0329248
1.0084152
0.98119636
0.95206887
0.92252986
0.89412213
0.86818972
0.84552519
0.82640673
0.81069716
0.79799892
0.78785343
0.77990585
0.77370432
0.76878733
0.76488554
0.76178191
0.75927868
0.75730396
0.75573381
0.75423696
0.75272133
0.75162093
0.75108979
0.75094618
0.75114323
0.7527657
0.75358569
0.75687878
0.88966045
0.97835713
1.0558841
1.125482
1.1642431
1.1496579
1.1596112
1.1490154
1.1533164
1.1460966
1.1463468
1.1403856
1.1373885
1.1311927
1.1251681
1.1172592
1.1079105
1.096784
1.0832436
1.0673534
1.0483801
1.0264405
1.0012835
0.97354009
0.94415335
0.91471492
0.88677658
0.86160151
0.83986088
0.82171279
0.80692664
0.79504414
0.78558649
0.77820984
0.77246759
0.76789832
0.76424869
0.76132202
0.75894728
0.75706604
0.75553729
0.7540277
0.75248745
0.75147293
0.75103158
0.75099225
0.75141517
0.75311356
0.75370954
0.75879863
0.89203377
0.98131624
1.0596352
1.1273462
1.1626904
1.1474725
1.1574022
1.1466952
1.1509211
1.1436133
1.1436998
1.137641
1.1344054
1.1280553
1.1217238
1.113553
1.1038124
1.0922753
1.0782178
1.0617475
1.0421212
1.0194894
0.99367288
0.9654239
0.93583288
0.90657476
0.87919087
0.85484727
0.83408648
0.81694669
0.80310699
0.79205256
0.78328983
0.77649007
0.77121215
0.76699368
0.76359786
0.76085003
0.75860593
0.75681941
0.75532559
0.7537969
0.75226787
0.75135604
0.75099554
0.75102166
0.75175772
0.75339185
0.7538149
0.76054529
0.89420993
0.98409786
1.0634231
1.1286299
1.1606658
1.1450711
1.1549675
1.1441577
1.1482909
1.1409025
1.1408092
1.1346566
1.1311699
1.1246595
1.1180075
1.1095589
1.0994077
1.0874326
1.0728301
1.0557462
1.035436
1.0120859
0.98560512
0.95688038
0.92715127
0.89816062
0.87141802
0.84797688
0.82824606
0.8121455
0.79926805
0.78904746
0.78098142
0.77476025
0.76994836
0.76608085
0.76293829
0.7603702
0.75825808
0.75656491
0.75509887
0.7535418
0.7520707
0.75126856
0.75097848
0.7510369
0.7521521
0.75361774
0.75389525
0.76211116
0.89617816
0.98667521
1.0672431
1.129305
1.1582114
1.1424597
1.1523113
1.1414187
1.1454392
1.1379814
1.1376955
1.1314498
1.1276983
1.1210187
1.1140321
1.1052867
1.0947041
1.082261
1.067084
1.0493527
1.0283281
1.0042368
0.97709494
0.9479366
0.91814722
0.88951831
0.86350527
0.84103483
0.8223789
0.80734214
0.79543637
0.78604974
0.7786776
0.77303295
0.76868582
0.76516676
0.7622749
0.75988617
0.75790714
0.75630374
0.7548587
0.75326559
0.75189262
0.75119805
0.75097153
0.7510521
0.75253282
0.75381333
0.75395956
0.76351489
0.89797777
0.98906834
1.0711141
1.1293826
1.1555752
1.1396594
1.1494594
1.1384975
1.142389
1.1348686
1.1343722
1.1280322
1.1240003
1.1171417
1.1098048
1.1007416
1.0897049
1.0767624
1.0609813
1.0425687
1.0208003
0.99594942
0.96815975
0.9386228
0.90886242
0.8806951
0.85549973
0.83406452
0.81652252
0.80256757
0.79163663
0.78307883
0.77639352
0.77131983
0.76743346
0.7642579
0.76161234
0.75940117
0.75755493
0.75603704
0.75460739
0.75297942
0.75172289
0.75113194
0.75097101
0.75108368
0.75287199
0.75399562
0.75401147
0.76475573
0.89962213
0.99128767
1.0750198
1.1288702
1.1528498
1.1366915
1.1464318
1.1354091
1.1391507
1.1315719
1.1308466
1.1244102
1.1200831
1.1130339
1.1053299
1.0959244
1.084409
1.0709345
1.0545191
1.0353913
1.01285
0.98722643
0.95881341
0.92896682
0.89933525
0.87173419
0.84744413
0.82710475
0.81071015
0.79784899
0.78789055
0.78015191
0.7741424
0.76963124
0.76619923
0.76336017
0.76095493
0.75891849
0.75720307
0.75576529
0.7543464
0.75269633
0.75155666
0.75105407
0.75097592
0.75116408
0.75315584
0.754159
0.75406874
0.76586526
0.90113751
0.99337996
1.0789537
1.1278057
1.1498567
1.1335699
1.1432305
1.1321565
1.1357258
1.1280947
1.1271234
1.1205891
1.1159516
1.1086978
1.1006071
1.0908329
1.0788134
1.0647741
1.0476941
1.0278166
1.0044749
0.97807325
0.94907461
0.91900144
0.88960782
0.86268059
0.8393815
0.82019344
0.80497346
0.79321194
0.78421843
0.77728474
0.77193571
0.76797664
0.76499017
0.76247897
0.7603066
0.75844112
0.75685349
0.75548878
0.75407531
0.75242708
0.75139941
0.75097484
0.75097563
0.75133998
0.75338682
0.75430516
0.75412529
0.76683185
0.90253188
0.99534691
1.0828014
1.1261952
1.146729
1.1302939
1.1398503
1.1287387
1.1321175
1.1244422
1.1232085
1.1165727
1.1116074
1.1041313
1.0956333
1.0854623
1.0729131
1.0582755
1.0404993
1.0198363
0.99566911
0.96849305
0.93896098
0.90875811
0.87971996
0.85357622
0.83135111
0.81336449
0.79934012
0.78867875
0.78063805
0.77449052
0.76978257
0.76636425
0.76381237
0.76161902
0.75967086
0.75797173
0.75650771
0.75520773
0.75379208
0.75217951
0.75125867
0.75090511
0.75095927
0.75160142
0.75358671
0.7544351
0.75418499
0.76764071
0.90380341
0.9972267
1.0863957
1.1240796
1.1434325
1.1268674
1.1363028
1.1251679
1.1283355
1.1206206
1.1191052
1.1123605
1.1070479
1.0993295
1.0904031
1.0798071
1.0667026
1.0514325
1.0329264
1.011442
0.98642839
0.95849365
0.92849612
0.89827376
0.86971549
0.84446533
0.82339288
0.80665093
0.79383598
0.78427002
0.77716545
0.77177995
0.76769077
0.76480133
0.76267147
0.76078438
0.75905087
0.75751274
0.75616733
0.75492288
0.75349517
0.75195654
0.75113728
0.7508502
0.75094432
0.75188779
0.75377606
0.75454961
0.75424713
0.76828363
0.90497053
0.99906986
1.0898191
1.1215325
1.1399676
1.1232937
1.1325923
1.121449
1.1243825
1.1166297
1.1148102
1.107947
1.1022671
1.0942862
1.0849113
1.0738615
1.0601751
1.0442361
1.0249638
1.0026216
0.97674675
0.9480825
0.91770407
0.88758508
0.85963709
0.83539019
0.81554375
0.80008159
0.7884826
0.7800026
0.77381274
0.76915975
0.7656677
0.76329374
0.76157302
0.75997826
0.75844927
0.75706618
0.75583386
0.7546359
0.75318881
0.75175402
0.75103418
0.75081127
0.75094674
0.75220545
0.75396103
0.75465339
0.7543057
0.76875611
0.90602893
1.0008798
1.0929687
1.1185953
1.1363465
1.119577
1.1287207
1.1175764
1.1202523
1.1124633
1.1103171
1.1033257
1.0972596
1.0889957
1.0791527
1.0676192
1.0533225
1.0366752
1.0165982
0.99336382
0.96662178
0.93727358
0.90661572
0.87673494
0.84953189
0.8263954
0.80784057
0.79368331
0.78329927
0.77589023
0.7705877
0.76663345
0.76372266
0.76184599
0.76052281
0.75920324
0.7578683
0.7566337
0.75550855
0.75434908
0.75287941
0.75156536
0.75094616
0.75078736
0.75095474
0.75253036
0.75413932
0.75474719
0.75435888
0.76909295
0.90701606
1.0026991
1.0958038
1.1153279
1.1325721
1.1157125
1.124686
1.1135462
1.1159348
1.1081138
1.1056209
1.0984915
1.0920213
1.0834531
1.0731222
1.0610724
1.0461333
1.0287352
1.0078128
0.98365519
0.95605139
0.92608248
0.89526382
0.86576697
0.83944609
0.81752259
0.80031483
0.78747737
0.77830138
0.77194173
0.767492
0.76420332
0.76186663
0.76046135
0.75952568
0.75846163
0.75730964
0.75621645
0.75519184
0.75406363
0.7525706
0.75138594
0.75086164
0.75077032
0.75096803
0.75284572
0.7543043
0.75482504
0.75440446
0.76926799
0.9078852
1.004492
1.0982185
1.1117585
1.1286424
1.1116997
1.1204896
1.1093553
1.1114294
1.1035757
1.1007189
1.0934411
1.0865492
1.0776535
1.066813
1.0542109
1.0385934
1.020399
0.99859026
0.97348477
0.94503917
0.91453287
0.88368878
0.85473088
0.82942897
0.80881234
0.79299307
0.78148121
0.77350325
0.76816315
0.76452439
0.76187676
0.76010865
0.75914359
0.75858303
0.75775611
0.75677447
0.75581511
0.75488284
0.75377729
0.75226867
0.75121376
0.75077816
0.75076191
0.75101846
0.75313476
0.75445001
0.75489048
0.75444195
0.7693479
0.90868372
1.0062924
1.1001534
1.1079126
1.1245644
1.1075384
1.1161242
1.1049989
1.1067378
1.09885
1.0956084
1.0881712
1.0808398
1.0715906
1.060216
1.0470208
1.0306848
1.0116462
0.98891101
0.96284142
0.93359126
0.90265128
0.87193347
0.84367618
0.81952677
0.80029704
0.78589154
0.77570717
0.76891747
0.76455939
0.76168651
0.7596694
0.75844895
0.75789907
0.75768978
0.7570897
0.75626346
0.75542994
0.75457952
0.75348343
0.75198286
0.75105577
0.75070473
0.75075517
0.75117765
0.75338297
0.75457308
0.75494223
0.75447248
0.76936426
0.90942366
1.0080801
1.1015363
1.1038751
1.120325
1.1032168
1.1115812
1.1004686
1.1018598
1.0939357
1.0902876
1.0826767
1.0748879
1.0652553
1.0533181
1.0394845
1.0223864
1.0024552
0.97875675
0.95171901
0.92172163
0.89047353
0.86004829
0.8326567
0.8097842
0.79200059
0.77902027
0.77016892
0.76455654
0.76113859
0.75899266
0.7575963
0.75687955
0.75673702
0.75683567
0.75646451
0.75577705
0.75506103
0.75427973
0.75317468
0.75172264
0.75092194
0.750651
0.75075223
0.7514539
0.75359784
0.75467443
0.75497964
0.75449637
0.76934582
0.91013107
1.0098193
1.1023255
1.0995606
1.1159275
1.0987412
1.1068613
1.0957659
1.0967856
1.0888294
1.084754
1.0769513
1.0686857
1.0586349
1.0461019
1.0315807
1.0136744
0.9928024
0.96810899
0.94011371
0.90944839
0.8780392
0.84808526
0.82172375
0.80023594
0.78393411
0.77238954
0.76488606
0.76042962
0.75791154
0.75646433
0.75565813
0.75539278
0.75566284
0.75601494
0.75587866
0.75531579
0.75470846
0.75398239
0.75285065
0.75149182
0.7508109
0.75061592
0.75076596
0.75177833
0.75379947
0.75476264
0.75500855
0.75451423
0.76935386
0.91088034
1.0115112
1.1025067
1.0950489
1.1113712
1.0941054
1.1019589
1.0908854
1.0915149
1.0835259
1.0790032
1.0709866
1.0622211
1.0517124
1.0385462
1.023285
1.0045235
0.98266463
0.95695289
0.92802911
0.89679988
0.86539727
0.8361025
0.81092778
0.79090713
0.77610666
0.76602862
0.75988403
0.75654587
0.75488714
0.75410781
0.75383454
0.75399526
0.75467063
0.755239
0.75532435
0.7548808
0.75437227
0.75368795
0.75252024
0.75128532
0.75071751
0.75059689
0.75078531
0.75213823
0.75399434
0.75484017
0.75503007
0.75452668
0.76938634
0.91169366
1.0131071
1.1020317
1.0903292
1.1066465
1.0893071
1.0968734
1.0858301
1.0860522
1.0780126
1.0730275
1.0647695
1.0554781
1.0444663
1.030626
1.0145711
0.99490677
0.97201831
0.94527505
0.9154734
0.88380949
0.85260035
0.82415653
0.80030907
0.78181006
0.76854027
0.75998024
0.7551855
0.75291144
0.7520603
0.75190259
0.7521118
0.75269703
0.75374988
0.75452714
0.7547915
0.75447376
0.75405214
0.75339749
0.75219351
0.75109679
0.75062648
0.75058156
0.75081038
0.75250525
0.75417919
0.7549087
0.75504368
0.75453219
0.7694578
0.91260663
1.0145487
1.1008958
1.0854279
1.1017581
1.0843548
1.0916083
1.0806005
1.0803923
1.0722809
1.066815
1.058283
1.0484361
1.0368713
1.0223138
1.0054114
0.98479736
0.96084172
0.93306833
0.90246447
0.87052179
0.83970907
0.81230438
0.78989868
0.77295759
0.76128542
0.7542844
0.75080639
0.74951618
0.74940837
0.74983501
0.7504998
0.75149509
0.75289922
0.75388094
0.75427772
0.75409563
0.75374667
0.75311025
0.75187856
0.7509244
0.75054599
0.75057117
0.75086787
0.75285358
0.75434696
0.75496774
0.75504965
0.75453046
0.76960369
0.91363714
1.0157821
1.0990993
1.0803597
1.0967064
1.0792499
1.0861585
1.0751867
1.0745203
1.0663205
1.0603478
1.0515058
1.0410702
1.0288997
1.0135812
0.99577773
0.9741677
0.94911398
0.92032974
0.88902699
0.85698699
0.82678478
0.80059427
0.77971433
0.76438207
0.75440228
0.74897142
0.74673207
0.74632868
0.74692553
0.74790768
0.74899792
0.75038867
0.75212034
0.75328965
0.75378897
0.75374434
0.75345306
0.75282111
0.75158374
0.75077309
0.75048347
0.75057288
0.75102085
0.75316513
0.75449135
0.75501682
0.75504916
0.75452436
0.76986182
0.91484493
1.0167485
1.0966523
1.0751387
1.0914825
1.0739812
1.0805092
1.0695736
1.0684222
1.0601131
1.0536016
1.0444122
1.0333534
1.0205224
1.004399
0.98564165
0.96299078
0.9368181
0.9070657
0.87519808
0.84326635
0.8138915
0.78906727
0.76977339
0.75615038
0.74794223
0.74404847
0.7429116
0.74334252
0.74462238
0.74611492
0.74760489
0.74937575
0.75141002
0.75274753
0.75333386
0.75341374
0.75316775
0.75252163
0.7513189
0.75065193
0.75044708
0.7505902
0.751298
0.75342834
0.75461025
0.75505615
0.75504179
0.75451584
0.77015801
0.9162587
1.0173886
1.0935538
1.0697507
1.0860646
1.0685289
1.0746426
1.0637435
1.0620787
1.053635
1.0465543
1.0369733
1.0252575
1.0117103
0.99473744
0.97497377
0.95123918
0.92394028
0.89328923
0.86102263
0.82942405
0.80108656
0.77775114
0.76011237
0.7483389
0.74193759
0.73947036
0.73931827
0.74057461
0.7424902
0.74445294
0.74631781
0.74845309
0.75076239
0.75225028
0.75292219
0.75309667
0.75288826
0.7522083
0.75109126
0.75055279
0.75042884
0.75061715
0.75164664
0.75365606
0.75470794
0.75508409
0.75502322
0.75450642
0.7704895
0.91785652
1.0175743
1.0897942
1.0641814
1.0804319
1.062885
1.0685445
1.0576761
1.055465
1.046857
1.0391841
1.0291599
1.0167533
1.0024343
0.9845662
0.96374368
0.93888712
0.91047405
0.87902611
0.84655779
0.81552971
0.78842194
0.76666986
0.75080872
0.74101103
0.73638587
0.7351701
0.73597521
0.73801902
0.74052394
0.74291658
0.74513355
0.74761639
0.75017332
0.75179636
0.75255389
0.75279142
0.75261465
0.75189188
0.75089534
0.75045836
0.75041567
0.7506465
0.75202429
0.75386723
0.7547892
0.75510254
0.75499862
0.75449663
0.77083832
0.91961945
1.0172436
1.0854066
1.0584317
1.0745754
1.0570327
1.0621917
1.0513454
1.0485536
1.0397523
1.0314618
1.0209447
1.007812
0.9926649
0.9738532
0.95191902
0.92591009
0.89641935
0.8643117
0.83186668
0.80164848
0.77593753
0.75585786
0.74195771
0.73420518
0.7312276
0.73113454
0.7328895
0.73566931
0.73871547
0.74150048
0.74404818
0.74686134
0.74964142
0.75138612
0.75222027
0.75250027
0.75234879
0.75158721
0.75072253
0.75037912
0.75041037
0.75069285
0.75240554
0.75405811
0.75485233
0.75511033
0.75497274
0.75448494
0.77120154
0.92156921
1.0163374
1.0804116
1.0524861
1.0684711
1.0509407
1.0555522
1.0447226
1.0413212
1.032298
1.0233584
1.0122999
0.9984046
0.98237118
0.96256353
0.93946677
0.91228839
0.8817882
0.84919599
0.81702198
0.78784355
0.76366793
0.74539477
0.73363924
0.72792245
0.72638767
0.72739241
0.7300535
0.7335167
0.73705716
0.74019895
0.74305763
0.74618456
0.74916591
0.75101807
0.75191504
0.75222345
0.75209156
0.75130101
0.75057594
0.75032163
0.75041485
0.75080339
0.75276272
0.7542247
0.75489752
0.75509694
0.75494422
0.7544674
0.77151379
0.9236538
1.0148077
1.0748384
1.0463045
1.0620774
1.0445812
1.0486015
1.037787
1.0337481
1.0244698
1.0148508
1.0031967
0.98850023
0.97151892
0.95065919
0.92635307
0.89800834
0.86660317
0.83373814
0.80209606
0.77416873
0.75164868
0.73539294
0.72590238
0.72210034
0.7218531
0.72394952
0.72745828
0.73155155
0.7355405
0.73900588
0.7421575
0.74558344
0.74874518
0.75068861
0.75163381
0.75196
0.75184003
0.75103884
0.75045962
0.75029038
0.75043549
0.75102683
0.75307767
0.75436511
0.75493281
0.75508011
0.75490863
0.75444482
0.77164952
0.92587929
1.0125496
1.0688491
1.0398576
1.0553745
1.0379398
1.0413291
1.0305229
1.0258142
1.0162409
1.0059151
0.99360453
0.97806356
0.96006961
0.93809859
0.91254646
0.88306665
0.85090362
0.81800998
0.78716321
0.76067404
0.73995274
0.72595514
0.71876434
0.71665029
0.71765617
0.72079687
0.72509329
0.72976389
0.73415716
0.73791528
0.74134366
0.74505584
0.74837673
0.75039384
0.75137382
0.75170755
0.75158697
0.75080878
0.75035629
0.75027543
0.75046967
0.75132659
0.75334079
0.7544813
0.75495996
0.75505901
0.75487144
0.75442001
0.77171649
0.92812219
1.0095359
1.0629495
1.033156
1.0483652
1.0310161
1.0337241
1.0229084
1.0174939
1.0075837
0.99652124
0.98348927
0.96705446
0.94797975
0.92483783
0.89801885
0.86747112
0.83474057
0.80208836
0.77229032
0.74740472
0.72869792
0.71714999
0.71217076
0.71154737
0.71380569
0.7179231
0.72294666
0.72814304
0.7328986
0.73692142
0.74061253
0.74459949
0.74805709
0.75012931
0.75112927
0.75146395
0.75132682
0.75061447
0.75026486
0.75026879
0.75050592
0.75169825
0.75356707
0.75457697
0.75497884
0.7550341
0.75483174
0.75439399
0.77171776
0.93035132
1.0058159
1.0565817
1.026228
1.0410316
1.0237856
1.0257564
1.0149105
1.0087576
0.99846972
0.98663551
0.97281154
0.9554264
0.93520057
0.91083309
0.88275116
0.85124629
0.81818125
0.78605574
0.75754264
0.73442384
0.71801645
0.70901526
0.70602196
0.70682579
0.7102905
0.71531536
0.72100629
0.72667851
0.73175676
0.73601948
0.73996187
0.74421187
0.74778208
0.74989095
0.75089851
0.75122856
0.75106956
0.75045242
0.75019368
0.75026603
0.75055916
0.75208238
0.75377405
0.75465282
0.7549862
0.75500525
0.7547904
0.75436755
0.77172219
0.93243247
1.0013931
1.0496788
1.0190235
1.0333305
1.0162089
1.0173919
1.0064973
0.9995777
0.98886602
0.97622046
0.96152472
0.94312568
0.92167953
0.89604326
0.86673572
0.83443208
0.80130233
0.76999068
0.742979
0.72184275
0.70800716
0.70151854
0.70027149
0.70249954
0.70709737
0.71295924
0.71925927
0.72535944
0.73072356
0.73520478
0.73938964
0.74389019
0.74754694
0.74967431
0.7506785
0.7510023
0.75082888
0.75031985
0.75014226
0.75026938
0.75066317
0.75245759
0.75395787
0.75470991
0.75498446
0.75497023
0.7547488
0.75434162
0.77165341
0.9342717
0.99629157
1.0424621
1.0114966
1.0252409
1.0082663
1.0086108
0.99764497
0.9899272
0.97872849
0.96522666
0.94957401
0.93009206
0.90736205
0.88043447
0.84998161
0.81708826
0.78419223
0.753973
0.72866469
0.70981471
0.69872887
0.69456324
0.69494425
0.69856095
0.70421088
0.71084022
0.71769292
0.72417538
0.72979108
0.73447152
0.7388913
0.74363178
0.74734676
0.74947594
0.75046841
0.75078618
0.75060888
0.75021097
0.75011731
0.7502907
0.75085279
0.75279493
0.75411384
0.75475168
0.75497658
0.75493473
0.75470736
0.75431646
0.77149726
0.93578886
0.9905214
1.034813
1.003662
1.0167416
0.99994167
0.99939214
0.98832451
0.97977247
0.96799956
0.95359141
0.93689784
0.91626152
0.89219476
0.86398286
0.83251471
0.79928828
0.76694054
0.73807937
0.71469736
0.69847271
0.69018597
0.68807311
0.69006323
0.69499449
0.70161387
0.70894278
0.71629418
0.72311571
0.72895093
0.73381142
0.73845611
0.7434337
0.74717665
0.74929301
0.75026805
0.75058157
0.75041012
0.75011568
0.75010464
0.75032822
0.75112166
0.75307258
0.75424016
0.75478276
0.75496183
0.75489132
0.75466588
0.7542917
0.77111984
0.93706326
0.98419556
1.0267413
0.99548459
1.0078122
0.99120156
0.9897049
0.97849207
0.96905832
0.95661864
0.94124594
0.92342805
0.90156855
0.87612995
0.84668073
0.81438281
0.78112136
0.74963977
0.72238936
0.70123355
0.6879099
0.68230246
0.68204707
0.68562925
0.69178209
0.69928874
0.70725173
0.71505046
0.72217026
0.72819484
0.73321598
0.738071
0.74329074
0.74703174
0.74912352
0.7500779
0.75039007
0.75023298
0.75003748
0.75010375
0.75037163
0.75146963
0.75329932
0.75433827
0.75479959
0.75493774
0.7548473
0.75462354
0.75426668
0.77036693
0.93799174
0.97733054
1.0182084
0.98695125
0.99841281
0.98200936
0.97950258
0.96808622
0.95771294
0.94451645
0.9281177
0.90909308
0.88594837
0.85912888
0.8285384
0.79565176
0.76268336
0.73237919
0.70699108
0.68844717
0.67816896
0.67496898
0.67652176
0.68162424
0.68890326
0.69721676
0.7057514
0.71394898
0.7213288
0.72751511
0.73268161
0.73773807
0.74319215
0.74690706
0.74896576
0.74989827
0.75021275
0.75008196
0.74997371
0.75009409
0.75043859
0.75183144
0.75350072
0.75441305
0.75480152
0.75490592
0.75480307
0.75458028
0.75424112
0.76916259
0.93862154
0.97015559
1.0092035
0.97803553
0.98849932
0.97230352
0.96872346
0.95703338
0.94565849
0.93161573
0.91412873
0.89381933
0.8693404
0.84116798
0.80959092
0.77640902
0.74407951
0.71525584
0.69203493
0.67647525
0.66920692
0.66815114
0.67150965
0.67802793
0.68633699
0.69537967
0.70442679
0.71297761
0.7205818
0.72690582
0.73221273
0.737492
0.74312217
0.74679802
0.74881824
0.74972869
0.75004876
0.74995906
0.74993255
0.7500912
0.75054954
0.75219057
0.75367836
0.75447199
0.75479702
0.7548707
0.75475756
0.75453665
0.75421524
0.76735747
0.93885536
0.96165794
0.99963517
0.96865857
0.97799025
0.96200635
0.95729338
0.94525305
0.93281963
0.91783286
0.89919648
0.87753251
0.8516917
0.82224286
0.78989568
0.75675641
0.72541593
0.69837284
0.67771831
0.66539318
0.66090726
0.66188933
0.66699092
0.67481643
0.68406083
0.69375866
0.7032628
0.71212428
0.71992011
0.72636262
0.73181436
0.73734595
0.7430697
0.74670132
0.74867977
0.74956836
0.74989603
0.7498603
0.74990436
0.75011273
0.75071634
0.75252113
0.75383228
0.75451855
0.75479006
0.75483332
0.75471174
0.75449323
0.75418934
0.76470028
0.93847839
0.95302025
0.98943357
0.95875023
0.96681415
0.9510394
0.94513259
0.93264971
0.91912505
0.90308461
0.88323255
0.86015933
0.83296255
0.80237329
0.76953563
0.73680951
0.70680897
0.68187027
0.66422204
0.65520387
0.65320146
0.65620579
0.6629441
0.67196498
0.68205268
0.69233575
0.7022451
0.71137767
0.71933536
0.72588092
0.73148128
0.73726227
0.74303317
0.74661435
0.74854988
0.74941816
0.74975531
0.7497859
0.74989558
0.75015168
0.75096057
0.75280162
0.75396049
0.75455145
0.75478006
0.75479306
0.75466567
0.75445038
0.75416361
0.76101457
0.93777002
0.94364262
0.97854928
0.94825969
0.95490551
0.9393178
0.93215422
0.91913263
0.90447958
0.88727875
0.86614719
0.84163321
0.81313284
0.78160476
0.74861299
0.71668791
0.68837992
0.66594847
0.65167085
0.64581
0.64610744
0.65109055
0.65934123
0.66944681
0.68028986
0.69109282
0.70135948
0.71072669
0.71881926
0.72545392
0.73120028
0.73721565
0.74301177
0.74653568
0.74842923
0.74928143
0.74963062
0.7497238
0.7498857
0.75020624
0.75127638
0.75303402
0.75406531
0.7545702
0.75476193
0.75475104
0.75461947
0.75440849
0.75413834
0.75636614
0.93652942
0.93343606
0.9668875
0.93709476
0.94217815
0.92673767
0.91826485
0.90460662
0.88877074
0.87031527
0.84785211
0.82190041
0.79220696
0.76001225
0.72724996
0.69652192
0.67026974
0.65083737
0.6401177
0.63710854
0.63966197
0.64651958
0.65615374
0.66723554
0.67875068
0.6900129
0.7005927
0.71016095
0.71836397
0.72507464
0.73095799
0.73719827
0.74300521
0.74646426
0.74831898
0.7491606
0.74952357
0.74967326
0.7498705
0.75029174
0.75161399
0.75323819
0.75414935
0.75457811
0.75473124
0.75470748
0.75457362
0.75436792
0.75411386
0.7506662
0.9345587
0.92246288
0.95434256
0.92515801
0.92852956
0.91318453
0.90335542
0.88895704
0.87189052
0.85209537
0.82826714
0.80092549
0.77021803
0.7376965
0.70558097
0.67645462
0.65268328
0.63671406
0.62950278
0.62908197
0.63386913
0.64246152
0.65335002
0.66530397
0.67741345
0.68907919
0.69993174
0.7096703
0.71796204
0.72473965
0.73076002
0.73721308
0.74300865
0.74639904
0.74821841
0.74905467
0.74943287
0.74963815
0.74987262
0.75041405
0.75195364
0.75341703
0.75421444
0.75457718
0.75470013
0.75466387
0.75453001
0.75432994
0.75408974
0.7438717
0.93177928
0.91064942
0.94080999
0.91233424
0.91385494
0.89853715
0.88731728
0.87205944
0.85372528
0.83252379
0.80732207
0.77869666
0.74723231
0.71478641
0.68375795
0.6566541
0.63588496
0.62367815
0.6196953
0.6217847
0.62870265
0.63888306
0.6508986
0.663626
0.67625777
0.68827607
0.69936446
0.7092454
0.71760751
0.7244502
0.73062524
0.73725579
0.74301853
0.74633817
0.74812447
0.74896029
0.74936064
0.74961804
0.74990426
0.75057987
0.75227286
0.75357106
0.75426587
0.75456959
0.75466609
0.75462122
0.75448966
0.75429668
0.75406647
0.73600837
0.927971
0.89793708
0.92616307
0.89848805
0.89804799
0.88267437
0.87004379
0.85378475
0.8341594
0.81150892
0.78496327
0.75523222
0.72334966
0.69143247
0.66195096
0.63733388
0.62010266
0.6117102
0.61064732
0.61523433
0.62412736
0.63574672
0.64876668
0.66217536
0.67526346
0.68758817
0.69887903
0.70887745
0.71729576
0.72420624
0.73054846
0.7373177
0.74303159
0.74628006
0.74803571
0.74887548
0.7493036
0.74960469
0.74995135
0.75080905
0.7525503
0.75369902
0.75430539
0.75455793
0.75463037
0.75457825
0.75445042
0.75426645
0.75404744
0.72712111
0.92283868
0.88425031
0.91026728
0.88348515
0.88100744
0.86547711
0.85141072