/*--------------------------------*- C++ -*----------------------------------*\
  =========                 |
  \\      /  F ield         | OpenFOAM: The Open Source CFD Toolbox
   \\    /   O peration     | Website:  https://openfoam.org
    \\  /    A nd           | Version:  8
     \\/     M anipulation  |
\*---------------------------------------------------------------------------*/
FoamFile
{
    version     2.0;
    format      ascii;
    class       surfaceScalarField;
    location    "0.250004";
    object      meshPhi;
}
// * * * * * * * * * * * * * * * * * * * * * * * * * * * * * * * * * * * * * //

dimensions      [0 3 -1 0 0 0 0];

internalField   nonuniform List<scalar> 
39600
(
-2.6288732e-05
-1.6274391e-06
1.6196663e-06
-2.6303801e-05
-1.9614842e-06
1.9867433e-06
-2.6319221e-05
-2.350419e-06
2.3796659e-06
-2.633731e-05
-2.8157364e-06
2.8504813e-06
-2.6358299e-05
-3.3729958e-06
3.4143228e-06
-2.6383724e-05
-4.040345e-06
4.0894776e-06
-2.64145e-05
-4.8393314e-06
4.8977904e-06
-2.6452534e-05
-5.7956051e-06
5.8653116e-06
-2.6501572e-05
-6.9397759e-06
7.0230551e-06
-2.6565048e-05
-8.3081911e-06
8.4078433e-06
-2.6647057e-05
-9.9439006e-06
1.0063327e-05
-2.6749454e-05
-1.1897852e-05
1.2041065e-05
-2.6874948e-05
-1.4229801e-05
1.4401623e-05
-2.7027989e-05
-1.7009449e-05
1.721557e-05
-2.7238757e-05
-2.0316505e-05
2.0564134e-05
-2.7506379e-05
-2.4240363e-05
2.4538591e-05
-2.7964094e-05
-2.887816e-05
2.9237347e-05
-2.8688305e-05
-3.4325806e-05
3.4759845e-05
-2.9530292e-05
-4.0690281e-05
4.1218282e-05
-3.0498039e-05
-4.8106414e-05
4.8751336e-05
-3.164922e-05
-5.671919e-05
5.7509105e-05
-3.3032e-05
-6.6699441e-05
6.7673207e-05
-3.5431016e-05
-7.804428e-05
7.9254448e-05
-3.9656987e-05
-9.0594122e-05
9.2126477e-05
-4.6780342e-05
-0.00010379987
0.0001057305
-5.5254234e-05
-0.00011746992
0.00011991787
-6.5633654e-05
-0.00013123747
0.00013438131
-7.4417652e-05
-0.0001458605
0.00014984576
-8.4964885e-05
-0.00016246388
0.00016745618
-9.5189775e-05
-0.00017998181
0.00018630219
-0.00010897387
-0.00019703167
0.00020501167
-0.00013198834
-0.00020720612
0.0002173038
-0.00016025823
-0.00020811165
0.00022069885
-0.00019442297
-0.00020285543
0.00021894082
-0.00023312506
-0.00019430961
0.00021510966
-0.00028714999
-0.00017770707
0.00020445604
-0.00034711579
-0.00015104147
0.00018543081
-0.00042417194
-0.00011039488
0.00015432479
-0.00050292284
-4.9375707e-05
0.0001042629
-0.00058817496
3.4741108e-05
3.037551e-05
-0.00067597889
0.00013735727
-6.106223e-05
-0.000788794
0.00024524665
-0.00015503144
-0.0008960689
0.00036099931
-0.00025624546
-0.00098634968
0.00049096373
-0.00037558715
-0.0010454699
0.0006440347
-0.00052327475
-0.0010682848
0.00081310188
-0.00069475975
-0.0010615039
0.0010075502
-0.00089882735
-0.00084906218
0.00123934
-0.0011568374
-0.00054312796
0.0015498125
-0.0015181061
0.00094810148
-0.00095268008
-2.1136641e-05
-1.6134859e-06
-2.1137302e-05
-1.9446622e-06
-2.1135045e-05
-2.3296296e-06
-2.113308e-05
-2.7907544e-06
-2.1134122e-05
-3.3430614e-06
-2.1140069e-05
-4.0043914e-06
-2.1153932e-05
-4.7962816e-06
-2.1177063e-05
-5.7441332e-06
-2.1212092e-05
-6.8784594e-06
-2.1259902e-05
-8.2353052e-06
-2.1322434e-05
-9.8575112e-06
-2.1398036e-05
-1.1795495e-05
-2.1492029e-05
-1.4108436e-05
-2.160948e-05
-1.6864927e-05
-2.1787068e-05
-2.0142665e-05
-2.2034836e-05
-2.4030122e-05
-2.2433852e-05
-2.8624028e-05
-2.3038539e-05
-3.4022037e-05
-2.3747381e-05
-4.0331289e-05
-2.4572851e-05
-4.7675782e-05
-2.5574909e-05
-5.6194723e-05
-2.6833001e-05
-6.6035465e-05
-2.9024832e-05
-7.7196096e-05
-3.288766e-05
-8.9500191e-05
-3.9267511e-05
-0.0001024413
-4.7100374e-05
-0.00011574987
-5.7045647e-05
-0.00012892324
-6.5583589e-05
-0.00014287358
-7.5796519e-05
-0.0001586318
-8.5928715e-05
-0.00017508858
-9.9758811e-05
-0.00019070456
-0.00012239534
-0.00019898857
-0.00014987942
-0.00019750616
-0.00018390639
-0.00018912248
-0.00022212216
-0.00017625357
-0.0002754874
-0.00015401281
-0.0003346962
-0.00012023132
-0.00041142944
-7.0346504e-05
-0.00049042031
1.5469408e-06
-0.00057545182
9.6180787e-05
-0.00066332644
0.00020962791
-0.00077480235
0.00033057869
-0.00088417626
0.00045991378
-0.00097479303
0.00060130483
-0.0010384544
0.00076048603
-0.0010602274
0.00092836355
-0.0010606326
0.0011148568
-0.00084945582
0.0013216993
-0.00053521043
0.0015779445
0.00094037071
-1.6392637e-05
-1.6047795e-06
-1.6462811e-05
-1.9336845e-06
-1.6531644e-05
-2.3158234e-06
-1.6587106e-05
-2.773537e-06
-1.662656e-05
-3.3218808e-06
-1.6653957e-05
-3.9787136e-06
-1.6670852e-05
-4.7654656e-06
-1.6678973e-05
-5.7075614e-06
-1.6677942e-05
-6.8354601e-06
-1.6669764e-05
-8.1852391e-06
-1.6658031e-05
-9.799691e-06
-1.6646124e-05
-1.1728967e-05
-1.6648301e-05
-1.4031874e-05
-1.6679738e-05
-1.6775824e-05
-1.6773506e-05
-2.0037636e-05
-1.695279e-05
-2.3905684e-05
-1.7252891e-05
-2.8476516e-05
-1.7684225e-05
-3.3850341e-05
-1.8212099e-05
-4.0131433e-05
-1.8861627e-05
-4.7435637e-05
-1.9684544e-05
-5.5897728e-05
-2.0804364e-05
-6.5645861e-05
-2.2765444e-05
-7.6680276e-05
-2.6251465e-05
-8.8808073e-05
-3.191361e-05
-0.00010156345
-3.9180884e-05
-0.00011460143
-4.8657031e-05
-0.00012728811
-5.6893629e-05
-0.00014066521
-6.6669212e-05
-0.00015571459
-7.6494468e-05
-0.00017128437
-9.0223934e-05
-0.00018564033
-0.00011222649
-0.00019225407
-0.00013907321
-0.00018861603
-0.00017248041
-0.00017731516
-0.00021035954
-0.00016033425
-0.00026273238
-0.00013267831
-0.00032128145
-9.2079687e-05
-0.00039741955
-3.3280422e-05
-0.00047662748
4.9300985e-05
-0.00056116224
0.00015465738
-0.00064877547
0.00027900673
-0.00075971599
0.00041275983
-0.00087065388
0.00055584223
-0.00096231104
0.00070922618
-0.0010290768
0.00087534795
-0.0010525633
0.0010432902
-0.0010582624
0.001223319
-0.00084880768
0.0014061772
-0.00052570018
0.0016089339
0.0009349015
-1.1872135e-05
-1.6022311e-06
-1.1944066e-05
-1.9312412e-06
-1.2019432e-05
-2.3135006e-06
-1.2088909e-05
-2.7712886e-06
-1.2147075e-05
-3.3194691e-06
-1.2195335e-05
-3.9758132e-06
-1.2230605e-05
-4.7615857e-06
-1.2249397e-05
-5.7022655e-06
-1.2247333e-05
-6.8282218e-06
-1.2221714e-05
-8.175538e-06
-1.2175964e-05
-9.7871136e-06
-1.2113755e-05
-1.1713102e-05
-1.205218e-05
-1.4012374e-05
-1.2012481e-05
-1.6752139e-05
-1.2021968e-05
-2.0009121e-05
-1.210943e-05
-2.3872053e-05
-1.2291026e-05
-2.8438834e-05
-1.2566357e-05
-3.3809964e-05
-1.2932027e-05
-4.0086358e-05
-1.3408944e-05
-4.738087e-05
-1.4060829e-05
-5.5821933e-05
-1.5027707e-05
-6.5523495e-05
-1.6758303e-05
-7.6486208e-05
-1.9892045e-05
-8.8499944e-05
-2.4934425e-05
-0.00010113397
-3.169722e-05
-0.00011397025
-4.0686653e-05
-0.000126276
-4.8581867e-05
-0.00013920971
-5.788981e-05
-0.00015371217
-6.7391939e-05
-0.00016855476
-8.0915143e-05
-0.00018181968
-0.00010222047
-0.00018698621
-0.00012843586
-0.00018144909
-0.00016115289
-0.00016745725
-0.00019867859
-0.00014658507
-0.00025002648
-0.00011376934
-0.0003078578
-6.6664643e-05
-0.00038333787
7.0174367e-07
-0.00046257133
9.3704201e-05
-0.00054666389
0.00020974386
-0.00063408491
0.00034496897
-0.00074482071
0.00049140894
-0.00085696139
0.00064845087
-0.00095007053
0.0008142623
-0.0010196898
0.00098809372
-0.0010459061
0.0011574338
-0.0010559808
0.001332623
-0.00084842399
0.0014925355
-0.00051693434
0.0016423356
0.0009312355
-7.5631082e-06
-1.605049e-06
-7.568361e-06
-1.9347746e-06
-7.5828321e-06
-2.3178871e-06
-7.6098425e-06
-2.7767739e-06
-7.6438781e-06
-3.3263055e-06
-7.6819585e-06
-3.9843722e-06
-7.7162955e-06
-4.7723167e-06
-7.7401649e-06
-5.715655e-06
-7.7474729e-06
-6.8447805e-06
-7.7308467e-06
-8.1958182e-06
-7.6930792e-06
-9.811578e-06
-7.6313486e-06
-1.1742215e-05
-7.5599935e-06
-1.40467e-05
-7.4911652e-06
-1.6792423e-05
-7.4515309e-06
-2.0056516e-05
-7.4638677e-06
-2.392883e-05
-7.5420932e-06
-2.8508643e-05
-7.695331e-06
-3.3895912e-05
-7.9208784e-06
-4.01906e-05
-8.2404905e-06
-4.7504537e-05
-8.7286792e-06
-5.5960885e-05
-9.5324977e-06
-6.5660442e-05
-1.1039973e-05
-7.6600959e-05
-1.384847e-05
-8.8556971e-05
-1.8353015e-05
-0.0001011296
-2.4664978e-05
-0.00011383588
-3.3146949e-05
-0.00012586525
-4.0628415e-05
-0.00013849126
-4.9449746e-05
-0.000152607
-5.8627363e-05
-0.00016687297
-7.1876982e-05
-0.00017919842
-9.2452826e-05
-0.00018312347
-0.00011801462
-0.00017593956
-0.00015002179
-0.00015949531
-0.00018715298
-0.00013495516
-0.00023746309
-9.7239597e-05
-0.00029451193
-4.3943078e-05
-0.00036926511
3.1653275e-05
-0.0004483534
0.00013479208
-0.00053205001
0.00026139528
-0.00061933575
0.00040738818
-0.00072998645
0.00056644483
-0.00084304346
0.0007376322
-0.00093783959
0.00091628949
-0.0010102179
0.0010985559
-0.0010398853
0.0012705457
-0.0010537049
0.0014424819
-0.00084821829
0.001580741
-0.00050885284
0.0016783078
0.00092943053
-3.5875256e-06
-1.6131276e-06
-3.5889258e-06
-1.944408e-06
-3.5957976e-06
-2.3293529e-06
-3.607182e-06
-2.7904714e-06
-3.6157874e-06
-3.3428196e-06
-3.6199018e-06
-4.00446e-06
-3.6134069e-06
-4.7969464e-06
-3.5939653e-06
-5.7460008e-06
-3.5594643e-06
-6.8822267e-06
-3.506284e-06
-8.2419315e-06
-3.4394146e-06
-9.8680828e-06
-3.3548437e-06
-1.181098e-05
-3.2639667e-06
-1.4129707e-05
-3.1692257e-06
-1.6891961e-05
-3.0854884e-06
-2.0175621e-05
-3.0329734e-06
-2.4071814e-05
-3.0273392e-06
-2.8680775e-05
-3.0788793e-06
-3.4103291e-05
-3.1854194e-06
-4.0439458e-05
-3.3649003e-06
-4.78008e-05
-3.6934676e-06
-5.6307224e-05
-4.3276385e-06
-6.6047878e-05
-5.6192795e-06
-7.7014095e-05
-8.1260422e-06
-8.8966068e-05
-1.2168497e-05
-0.00010152587
-1.8072038e-05
-0.00011414932
-2.6026513e-05
-0.00012599795
-3.3034776e-05
-0.00013846371
-4.1363519e-05
-0.00015235409
-5.0220273e-05
-0.0001661806
-6.315556e-05
-0.00017771763
-8.2988108e-05
-0.00018059659
-0.00010787135
-0.00017200191
-0.00013916555
-0.00015333036
-0.00017585649
-0.00012535055
-0.00022512738
-8.3004391e-05
-0.00028133927
-2.3830096e-05
-0.0003552991
5.9640096e-05
-0.0004341049
0.00017258628
-0.00051743014
0.00030954036
-0.00060459964
0.00046619147
-0.00071518854
0.00063781993
-0.0008289534
0.00082328886
-0.0009255395
0.0010151109
-0.0010006357
0.0012065208
-0.0010342706
0.0013824765
-0.0010513967
0.0015527505
-0.00084810829
0.0016705419
-0.00050141586
0.0017164391
0.00092913821
1.4130349e-07
-1.6265082e-06
1.5116013e-07
-1.9607257e-06
1.6142939e-07
-2.3492305e-06
1.7326523e-07
-2.8147111e-06
1.9448793e-07
-3.3723777e-06
2.2500681e-07
-4.0404527e-06
2.6915885e-07
-4.8406772e-06
3.2671095e-07
-5.7989904e-06
3.9720295e-07
-6.9462204e-06
4.8266406e-07
-8.3189669e-06
5.7705046e-07
-9.9605027e-06
6.8570715e-07
-1.1921562e-05
7.9946965e-07
-1.4261759e-05
9.2258165e-07
-1.7049591e-05
1.0493947e-06
-2.0364001e-05
1.1625509e-06
-2.4297284e-05
1.241161e-06
-2.8950957e-05
1.2778733e-06
-3.4427979e-05
1.2808666e-06
-4.0829785e-05
1.2327837e-06
-4.8266632e-05
1.0555653e-06
-5.6854678e-05
5.885818e-07
-6.6675213e-05
-4.943671e-07
-7.7712421e-05
-2.7187093e-06
-8.9710904e-05
-6.3665455e-06
-0.00010230407
-1.1897727e-05
-0.00011489445
-1.9304287e-05
-0.00012665621
-2.5790671e-05
-0.00013910589
-3.3628416e-05
-0.00015292491
-4.2167707e-05
-0.00016644435
-5.4761686e-05
-0.00017733081
-7.3851106e-05
-0.00017934476
-9.8032177e-05
-0.00016956799
-0.00012862012
-0.00014889983
-0.00016482232
-0.0001177084
-0.00021306063
-7.100037e-05
-0.00026838704
-6.2635598e-06
-0.00034149451
8.4729853e-05
-0.00041990213
0.00020714961
-0.0005028629
0.00035422525
-0.00058990962
0.00052137292
-0.00070041063
0.00070549976
-0.00081472701
0.00090534636
-0.00091312016
0.0011106473
-0.0009909243
0.0013118693
-0.0010288602
0.0014930272
-0.0010489982
0.0016631641
-0.00084802753
0.0017617939
-0.00049454699
0.0017567046
0.0009303144
3.6408282e-06
-1.6448509e-06
3.6764736e-06
-1.9829222e-06
3.7213257e-06
-2.3760971e-06
3.7701528e-06
-2.8473099e-06
3.82749e-06
-3.411943e-06
3.8900517e-06
-4.0884022e-06
3.9612578e-06
-4.8986382e-06
4.0407612e-06
-5.8688813e-06
4.1291204e-06
-7.0303251e-06
4.2301862e-06
-8.4200192e-06
4.3397078e-06
-1.0081824e-05
4.4663401e-06
-1.2067175e-05
4.6033878e-06
-1.4436523e-05
4.7597454e-06
-1.7259433e-05
4.934839e-06
-2.0616318e-05
5.1086585e-06
-2.4600467e-05
5.2579546e-06
-2.931544e-05
5.3822763e-06
-3.4867312e-05
5.4948089e-06
-4.135836e-05
5.5760183e-06
-4.8898193e-05
5.5417168e-06
-5.7599396e-05
5.2337339e-06
-6.7536876e-05
4.3466158e-06
-7.8686187e-05
2.3877039e-06
-9.0781483e-05
-9.1133309e-07
-0.00010345479
-6.1023968e-06
-0.00011605481
-1.2953333e-05
-0.00012781683
-1.8881231e-05
-0.00014039184
-2.623187e-05
-0.00015429479
-3.4451128e-05
-0.00016764446
-4.6685687e-05
-0.00017802964
-6.5038579e-05
-0.00017935726
-8.8501168e-05
-0.00016860957
-0.00011838879
-0.0001461606
-0.00015405931
-0.00011199207
-0.00020127526
-6.1195676e-05
-0.00025568049
8.7903615e-06
-0.00032788702
0.00010694546
-0.00040580554
0.00023848575
-0.00048839738
0.00039542411
-0.00057529655
0.00057293363
-0.00068567303
0.00076949108
-0.00080042591
0.00098376709
-0.000900601
0.0012028021
-0.00098110031
0.0014145165
-0.0010235648
0.0016021703
-0.0010464812
0.0017736401
-0.00084792753
0.0018542373
-0.00048820374
0.0017987193
0.00093266839
6.9014044e-06
-1.668028e-06
6.9457223e-06
-2.0108366e-06
7.0011808e-06
-2.4095e-06
7.0619062e-06
-2.8872515e-06
7.1317479e-06
-3.4597071e-06
7.2077166e-06
-4.1455885e-06
7.2943208e-06
-4.9672701e-06
7.3916572e-06
-5.9514622e-06
7.5015641e-06
-7.1298923e-06
7.6285678e-06
-8.5403431e-06
7.7692338e-06
-1.0227421e-05
7.9335039e-06
-1.2243537e-05
8.115228e-06
-1.4650227e-05
8.3249791e-06
-1.7518385e-05
8.5608902e-06
-2.0929245e-05
8.8019524e-06
-2.4977917e-05
9.0296733e-06
-2.9771554e-05
9.2476438e-06
-3.5417792e-05
9.4719601e-06
-4.2020745e-05
9.6807976e-06
-4.9690443e-05
9.7854285e-06
-5.8536659e-05
9.6309682e-06
-6.8627945e-05
8.9252421e-06
-7.9929093e-05
7.2144252e-06
-9.2166444e-05
4.2258814e-06
-0.00010496405
-6.5688017e-07
-0.00011761877
-6.957595e-06
-0.00012946434
-1.230104e-05
-0.00014229988
-1.9166385e-05
-0.00015643681
-2.7062939e-05
-0.00016974899
-3.892238e-05
-0.00017976912
-5.6549099e-05
-0.0001805786
-7.9281267e-05
-0.00016906785
-0.00010847961
-0.00014505288
-0.00014358047
-0.00010813186
-0.00018978004
-5.3521925e-05
-0.00024323394
2.1391012e-05
-0.00031450112
0.00012634965
-0.00039185505
0.00026665755
-0.00047406675
0.00043319579
-0.0005607858
0.00062088519
-0.00067099496
0.0008297624
-0.0007860939
0.0010584879
-0.00088800236
0.0012915082
-0.0009711849
0.0015143497
-0.0010182772
0.0017096788
-0.0010437804
0.0018838677
-0.00084774121
0.0019476692
-0.00048231639
0.0018424724
0.00093621911
9.9327108e-06
-1.6958358e-06
9.9665186e-06
-2.0440976e-06
1.0007467e-05
-2.449092e-06
1.0056021e-05
-2.9344154e-06
1.0119564e-05
-3.5160124e-06
1.0197873e-05
-4.2129856e-06
1.0296482e-05
-5.0482118e-06
1.0415513e-05
-6.048966e-06
1.055683e-05
-7.2477318e-06
1.0723736e-05
-8.6830349e-06
1.0912236e-05
-1.0400597e-05
1.1131107e-05
-1.2453858e-05
1.1373589e-05
-1.4905751e-05
1.1647459e-05
-1.7828292e-05
1.1947798e-05
-2.1303503e-05
1.225507e-05
-2.542914e-05
1.2562499e-05
-3.031572e-05
1.288055e-05
-3.6074501e-05
1.3220284e-05
-4.2811651e-05
1.3556603e-05
-5.0637398e-05
1.3798689e-05
-5.9659177e-05
1.3794805e-05
-6.9940755e-05
1.326111e-05
-8.143496e-05
1.1784243e-05
-9.386295e-05
9.0787714e-06
-0.00010683946
4.4867089e-06
-0.00011959871
-1.2842054e-06
-0.00013160172
-6.0486911e-06
-0.00014480799
-1.2438775e-05
-0.0001592965
-2.0012535e-05
-0.0001726877
-3.1486218e-05
-0.00018247687
-4.8404321e-05
-0.00018291845
-7.0406403e-05
-0.00017081484
-9.8927646e-05
-0.00014541566
-0.00013342982
-0.00010595328
-0.0001786123
-4.7792869e-05
-0.00023108835
3.1732161e-05
-0.0003013786
0.00014312623
-0.00037810407
0.00029183731
-0.00045991582
0.00046770632
-0.00054641348
0.00066541573
-0.00065641504
0.00088649886
-0.00077178128
0.0011296568
-0.00087535903
0.00137686
-0.00096118571
0.0016114454
-0.0010129206
0.0018156248
-0.0010408337
0.0019937877
-0.00084739983
0.0020418099
-0.00047683448
0.0018876066
0.00094073491
1.2770081e-05
-1.7283887e-06
1.2811329e-05
-2.0835649e-06
1.286203e-05
-2.4968785e-06
1.2922603e-05
-2.9922961e-06
1.3000158e-05
-3.5860053e-06
1.3094258e-05
-4.2975687e-06
1.3210319e-05
-5.1501521e-06
1.3348762e-05
-6.1716228e-06
1.3511872e-05
-7.3950472e-06
1.3704559e-05
-8.8598219e-06
1.3922824e-05
-1.0612523e-05
1.417768e-05
-1.2708028e-05
1.4460595e-05
-1.5210607e-05
1.4778507e-05
-1.819345e-05
1.5121967e-05
-2.1740336e-05
1.5485409e-05
-2.5952801e-05
1.5873373e-05
-3.0946605e-05
1.629064e-05
-3.6835413e-05
1.6748435e-05
-4.3727407e-05
1.7212876e-05
-5.1734476e-05
1.759149e-05
-6.0961531e-05
1.7736707e-05
-7.1468989e-05
1.7369458e-05
-8.3196789e-05
1.6120382e-05
-9.5864101e-05
1.3683035e-05
-0.00010907204
9.371738e-06
-0.00012198342
4.1037274e-06
-0.0001342166
-1.0923969e-07
-0.00014789957
-6.0436876e-06
-0.00016284917
-1.330015e-05
-0.00017642394
-2.4388086e-05
-0.00018609322
-4.062285e-05
-0.00018629965
-6.1905474e-05
-0.00017376605
-8.975301e-05
-0.00014717101
-0.00012362903
-0.00010538578
-0.00016780596
-4.3925018e-05
-0.00021927741
3.9909247e-05
-0.00028854823
0.00015736047
-0.00036458088
0.00031408247
-0.00044596704
0.00049898631
-0.00053219887
0.00070650348
-0.00064195272
0.00093963237
-0.00075751316
0.0011971772
-0.0008626857
0.0014587456
-0.00095110206
0.0017056359
-0.0010074235
0.0019197043
-0.0010375985
0.0021030182
-0.00084685689
0.0021363997
-0.00047168969
0.0019340048
0.00094615448
1.5424074e-05
-1.7653076e-06
1.548967e-05
-2.1281364e-06
1.5573086e-05
-2.5506218e-06
1.566935e-05
-3.0572605e-06
1.5782471e-05
-3.6646665e-06
1.5908499e-05
-4.3927598e-06
1.6052289e-05
-5.2653284e-06
1.62132e-05
-6.3107893e-06
1.6394814e-05
-7.5629307e-06
1.6601835e-05
-9.0620278e-06
1.683316e-05
-1.0855532e-05
1.7100876e-05
-1.2999469e-05
1.7398305e-05
-1.5559159e-05
1.7732824e-05
-1.860899e-05
1.8107327e-05
-2.2237054e-05
1.8531584e-05
-2.6550393e-05
1.9006726e-05
-3.1667899e-05
1.952297e-05
-3.770572e-05
2.0083852e-05
-4.4771865e-05
2.0665238e-05
-5.2980014e-05
2.117344e-05
-6.2437556e-05
2.1461499e-05
-7.3203229e-05
2.1259098e-05
-8.5205469e-05
2.0240592e-05
-9.8168762e-05
1.8064473e-05
-0.00011167086
1.4029907e-05
-0.00012480158
9.2353266e-06
-0.0001373295
5.537593e-06
-0.00015155908
3.2580329e-08
-0.00016706412
-6.9216041e-06
-0.00018091936
-1.7633129e-05
-0.00019057543
-3.3200519e-05
-0.0001906768
-5.3764691e-05
-0.00017787754
-8.0931571e-05
-0.00015027573
-0.00011415551
-0.00010639103
-0.00015734884
-4.1877483e-05
-0.00020780421
4.5989046e-05
-0.00027602594
0.00016915966
-0.0003512984
0.00033351355
-0.0004322243
0.0005271349
-0.00051814548
0.00074426347
-0.00062761729
0.00098928805
-0.0007433054
0.001261149
-0.00084999797
0.0015372321
-0.0009409345
0.0017969859
-0.0010017528
0.0020219951
-0.0010340454
0.0022115152
-0.00084608189
0.0022311768
-0.00046684148
0.0019813436
0.00095228448
1.7923932e-05
-1.8070021e-06
1.8040117e-05
-2.1794513e-06
1.8173372e-05
-2.6134438e-06
1.8310151e-05
-3.1337678e-06
1.8452231e-05
-3.7571639e-06
1.8599143e-05
-4.5040407e-06
1.875575e-05
-5.3986736e-06
1.8924208e-05
-6.4700672e-06
1.9110326e-05
-7.7529792e-06
1.9319645e-05
-9.2885568e-06
1.9555974e-05
-1.1125725e-05
1.9830773e-05
-1.3322116e-05
2.0142168e-05
-1.5944562e-05
2.0502957e-05
-1.9070757e-05
2.0933551e-05
-2.2794181e-05
2.1444593e-05
-2.7225745e-05
2.2014436e-05
-3.2485955e-05
2.2618864e-05
-3.8688913e-05
2.325843e-05
-4.5944884e-05
2.39285e-05
-5.4372062e-05
2.4548285e-05
-6.4081875e-05
2.496833e-05
-7.5134819e-05
2.4931878e-05
-8.7450517e-05
2.4150484e-05
-0.00010076296
2.2237187e-05
-0.00011462257
1.8484053e-05
-0.00012803742
1.412798e-05
-0.00014092073
1.0895089e-05
-0.00015576272
5.783502e-06
-0.00017190282
-8.8120221e-07
-0.00018612497
-1.1213582e-05
-0.00019587336
-2.6118515e-05
-0.00019600597
-4.5953883e-05
-0.00018311644
-7.2435979e-05
-0.00015470534
-0.00010498664
-0.00010893774
-0.00014721183
-4.1625071e-05
-0.00019665154
4.9983239e-05
-0.0002638202
0.00017855015
-0.00033827319
0.00035017982
-0.00041869089
0.00055218241
-0.00050425796
0.00077865765
-0.00061341413
0.0010353807
-0.0007291682
0.0013214583
-0.00083730549
0.0016121836
-0.00093068794
0.0018853038
-0.00099586444
0.0021221495
-0.0010301336
0.0023188614
-0.00084502789
0.0023258801
-0.00046224378
0.0020295832
0.00095914798
2.0197567e-05
-1.8518352e-06
2.0310645e-05
-2.2321266e-06
2.0439055e-05
-2.6751648e-06
2.0573767e-05
-3.2064147e-06
2.0717122e-05
-3.8434967e-06
2.0872732e-05
-4.6074281e-06
2.1043117e-05
-5.5233978e-06
2.1233211e-05
-6.6215943e-06
2.1445762e-05
-7.9376043e-06
2.1687645e-05
-9.5141925e-06
2.1962766e-05
-1.1401461e-05
2.2282239e-05
-1.3658944e-05
2.2648878e-05
-1.635548e-05
2.3083988e-05
-1.9572594e-05
2.3609639e-05
-2.3407875e-05
2.4224435e-05
-2.7973879e-05
2.4892453e-05
-3.3390851e-05
2.5569788e-05
-3.977347e-05
2.6268692e-05
-4.7234062e-05
2.7007291e-05
-5.5898955e-05
2.7723313e-05
-6.5887404e-05
2.8269378e-05
-7.7258066e-05
2.8398932e-05
-8.992608e-05
2.7852491e-05
-0.00010363758
2.6209565e-05
-0.00011792315
2.2737537e-05
-0.00013170013
1.876867e-05
-0.00014498072
1.5945279e-05
-0.00016045912
1.1193419e-05
-0.00017728581
4.8236798e-06
-0.00019195784
-5.1151004e-06
-0.00020191385
-1.9365087e-05
-0.0002022038
-3.8468937e-05
-0.00018936673
-6.4265665e-05
-0.00016031435
-9.6128162e-05
-0.00011286652
-0.00013739472
-4.2990829e-05
-0.00018581873
5.2085558e-05
-0.00025193591
0.00018573129
-0.00032553255
0.0003643081
-0.00040539284
0.00057439985
-0.00049055381
0.00080997856
-0.00059936034
0.001078191
-0.00071511823
0.0013783578
-0.00082461935
0.0016838091
-0.00092035146
0.001970749
-0.00098971644
0.0022202886
-0.0010258163
0.0024250136
-0.00084365114
0.0024202311
-0.00045786456
0.002078417
0.00096659354
2.2264081e-05
-1.9012781e-06
2.2335275e-05
-2.2915584e-06
2.2423356e-05
-2.7463182e-06
2.2530486e-05
-3.291614e-06
2.2660374e-05
-3.9453167e-06
2.2816155e-05
-4.7291434e-06
2.3000061e-05
-5.6689586e-06
2.3216205e-05
-6.7956951e-06
2.3466787e-05
-8.1465184e-06
2.3757023e-05
-9.7652938e-06
2.4091988e-05
-1.1704498e-05
2.4479896e-05
-1.402566e-05
2.4929992e-05
-1.6801068e-05
2.5460404e-05
-2.0116143e-05
2.6090601e-05
-2.4071073e-05
2.6809184e-05
-2.8780573e-05
2.7567241e-05
-3.4363947e-05
2.8319845e-05
-4.0937546e-05
2.9084937e-05
-4.8622774e-05
2.9895728e-05
-5.755292e-05
3.0707644e-05
-6.7849421e-05
3.1378409e-05
-7.9569129e-05
3.1673216e-05
-9.2627228e-05
3.135386e-05
-0.00010678452
2.9990094e-05
-0.00012155916
2.6789219e-05
-0.00013576383
2.3141169e-05
-0.00014947219
2.0679826e-05
-0.00016561093
1.6273636e-05
-0.00018318573
1.0213526e-05
-0.00019839421
6.7765259e-07
-0.00020866046
-1.2929047e-05
-0.00020922676
-3.130652e-05
-0.00019659064
-5.6418562e-05
-0.00016707064
-8.75816e-05
-0.00011814273
-0.0001278994
-4.5940277e-05
-0.00017530558
5.2323297e-05
-0.00024036606
0.00019071638
-0.00031308381
0.00037589594
-0.00039234956
0.00059378181
-0.00047703953
0.0008381681
-0.00058545993
0.0011175928
-0.0007011595
0.0014316914
-0.00081193714
0.0017519209
-0.00090991009
0.0020530723
-0.00098327443
0.0023160117
-0.001021077
0.0025295334
-0.000841918
0.0025139606
-0.00045365148
0.0021277095
0.00097455688
2.4215978e-05
-1.9546366e-06
2.4288937e-05
-2.355803e-06
2.4377032e-05
-2.8234441e-06
2.4482798e-05
-3.3840962e-06
2.4610332e-05
-4.0562733e-06
2.4763365e-05
-4.8623018e-06
2.4946455e-05
-5.8286838e-06
2.5164768e-05
-6.9873794e-06
2.5424104e-05
-8.3765724e-06
2.5731346e-05
-1.0041551e-05
2.6096009e-05
-1.203686e-05
2.65261e-05
-1.4425815e-05
2.7033117e-05
-1.7284005e-05
2.7635545e-05
-2.0700905e-05
2.8346121e-05
-2.4780227e-05
2.9149552e-05
-2.9637542e-05
2.9993086e-05
-3.5394713e-05
3.0836604e-05
-4.217487e-05
3.1692987e-05
-5.0106833e-05
3.259359e-05
-5.9328564e-05
3.3508107e-05
-6.9960641e-05
3.4302017e-05
-8.2058581e-05
3.4756524e-05
-9.5540866e-05
3.4656488e-05
-0.00011018634
3.3568829e-05
-0.00012550808
3.0620069e-05
-0.00014020799
2.7242698e-05
-0.00015437792
2.5116676e-05
-0.00017119609
2.1057669e-05
-0.00018957946
1.5317279e-05
-0.0002054149
6.1883727e-06
-0.00021609857
-6.7864198e-06
-0.000217058
-2.4443595e-05
-0.00020475677
-4.887155e-05
-0.00017493062
-7.9326417e-05
-0.00012471943
-0.00011870383
-5.042009e-05
-0.00016509203
5.0764171e-05
-0.00022908777
0.00019358771
-0.00030090636
0.00038503624
-0.0003795468
0.00061042826
-0.00046370023
0.00086336188
-0.00057169991
0.0011537496
-0.00068728075
0.0014816082
-0.00079924619
0.0018166415
-0.00089934365
0.0021323717
-0.00097651273
0.0024094173
-0.0010158958
0.0026323878
-0.00083981288
0.0026068096
-0.00044956811
0.0021771779
0.00098290423
2.6019274e-05
-2.0118313e-06
2.6096348e-05
-2.4246883e-06
2.6188838e-05
-2.9060669e-06
2.6299607e-05
-3.4832644e-06
2.6432623e-05
-4.1753104e-06
2.6591795e-05
-5.0052112e-06
2.6782145e-05
-6.0002569e-06
2.7009247e-05
-7.1936126e-06
2.7279969e-05
-8.6243317e-06
2.7602674e-05
-1.0339608e-05
2.7988515e-05
-1.2395423e-05
2.8447647e-05
-1.48576e-05
2.8990212e-05
-1.7804416e-05
2.9637048e-05
-2.1328627e-05
3.0399316e-05
-2.5536417e-05
3.1263524e-05
-3.0547068e-05
3.2191013e-05
-3.6487851e-05
3.3137496e-05
-4.3488427e-05
3.4101199e-05
-5.168602e-05
3.510792e-05
-6.1222503e-05
3.6128967e-05
-7.2214395e-05
3.7042132e-05
-8.4717211e-05
3.7647834e-05
-9.8654405e-05
3.7757324e-05
-0.00011382651
3.6937931e-05
-0.00012975314
3.421617e-05
-0.00014500358
3.1076841e-05
-0.00015965818
2.9279116e-05
-0.00017718696
2.5568452e-05
-0.00019644753
2.0153058e-05
-0.00021299478
1.1434891e-05
-0.00022419303
-9.1891244e-07
-0.00022566006
-1.7862559e-05
-0.00021383407
-4.1607238e-05
-0.0001838683
-7.1346641e-05
-0.00013256853
-0.00010979221
-5.6402805e-05
-0.00015516283
4.7427649e-05
-0.00021808732
0.00019435587
-0.00028898229
0.00039171556
-0.00036696684
0.00062429164
-0.00045053461
0.0008854859
-0.00055807215
0.0011865471
-0.00067347547
0.0015279442
-0.00078654188
0.0018777758
-0.0008886455
0.0022083937
-0.00096941361
0.0025001017
-0.0010102552
0.0027331493
-0.00083730344
0.0026985412
-0.00044558337
0.0022267756
0.00099165713
2.767936e-05
-2.0727807e-06
2.7760762e-05
-2.4981025e-06
2.7858396e-05
-2.9941524e-06
2.7975187e-05
-3.5889313e-06
2.8115363e-05
-4.3022665e-06
2.8282886e-05
-5.1575884e-06
2.8483431e-05
-6.1834502e-06
2.8722659e-05
-7.4137414e-06
2.9008528e-05
-8.8891538e-06
2.9350018e-05
-1.065829e-05
2.9757337e-05
-1.2778813e-05
3.024183e-05
-1.5319092e-05
3.0812867e-05
-1.8360211e-05
3.1487269e-05
-2.1997304e-05
3.227831e-05
-2.6339474e-05
3.3188902e-05
-3.1510021e-05
3.4193126e-05
-3.7643056e-05
3.5242433e-05
-4.4877598e-05
3.6322207e-05
-5.3358807e-05
3.7441812e-05
-6.3228458e-05
3.8568756e-05
-7.460047e-05
3.9594359e-05
-8.752971e-05
4.0345806e-05
-0.00010194874
4.0650954e-05
-0.00011767727
4.0078248e-05
-0.00013423835
3.7558554e-05
-0.00015009059
3.4641968e-05
-0.00016528288
3.3176604e-05
-0.00018355309
2.9810879e-05
-0.00020373374
2.4722268e-05
-0.00022106039
1.6416661e-05
-0.00023286357
4.6724545e-06
-0.00023493789
-1.1565688e-05
-0.00022370178
-3.4628619e-05
-0.00019373955
-6.3647531e-05
-0.00014152996
-0.00010116937
-6.3708143e-05
-0.0001455243
4.2521634e-05
-0.00020737261
0.00019325837
-0.0002773173
0.00039619929
-0.00035462169
0.00063567609
-0.00043756418
0.00090489771
-0.00054458338
0.0012163432
-0.00065974825
0.001571012
-0.00077382002
0.0019355905
-0.00087780028
0.0022813367
-0.00096195027
0.0025882115
-0.0010041256
0.0028317783
-0.00083435694
0.0027888585
-0.00044167532
0.002276224
0.0010007083
2.9204706e-05
-2.1373975e-06
2.9290211e-05
-2.5758256e-06
2.9392783e-05
-3.0874305e-06
2.9515504e-05
-3.7008559e-06
2.9662741e-05
-4.4365966e-06
2.9838802e-05
-5.3188921e-06
3.0049676e-05
-6.3772631e-06
3.0301378e-05
-7.6466417e-06
3.0602676e-05
-9.1692806e-06
3.0962656e-05
-1.0995424e-05
3.1390057e-05
-1.3184243e-05
3.1894075e-05
-1.5806315e-05
3.2486444e-05
-1.8945926e-05
3.3176975e-05
-2.270002e-05
3.3988262e-05
-2.7181573e-05
3.4940936e-05
-3.2520699e-05
3.6015835e-05
-3.8857094e-05
3.7169506e-05
-4.6339564e-05
3.8368977e-05
-5.5121463e-05
3.9601219e-05
-6.534115e-05
4.0832431e-05
-7.7112817e-05
4.1965639e-05
-9.0490369e-05
4.2858406e-05
-0.00010541646
4.3343199e-05
-0.00012173002
4.2977366e-05
-0.00013894702
4.0636946e-05
-0.00015543841
3.7948182e-05
-0.00017121726
3.6821447e-05
-0.00019027015
3.3795235e-05
-0.0002114204
2.903437e-05
-0.00022959096
2.114086e-05
-0.00024208192
9.9937449e-06
-0.00024486131
-5.5485327e-06
-0.00023433667
-2.7932366e-05
-0.00020452657
-5.6227763e-05
-0.00015158481
-9.283381e-05
-7.2320535e-05
-0.00013617633
3.6051667e-05
-0.00019694357
0.00019028627
-0.00026591442
0.0003984588
-0.00034251363
0.00064450995
-0.00042479124
0.00092145498
-0.00053123197
0.0012429539
-0.00064609702
0.00161061
-0.00076107434
0.0019898466
-0.00086679185
0.0023509021
-0.00095409875
0.0026733085
-0.00099749442
0.0029278591
-0.00083094887
0.0028775384
-0.00043779555
0.0023253613
0.0010099739
3.0600433e-05
-2.2055089e-06
3.0688133e-05
-2.6577093e-06
3.0793028e-05
-3.1855773e-06
3.0918934e-05
-3.8185821e-06
3.1070192e-05
-4.5776628e-06
3.1251756e-05
-5.4881159e-06
3.1469372e-05
-6.5802457e-06
3.1730318e-05
-7.8902125e-06
3.204254e-05
-9.46173e-06
3.2416352e-05
-1.1346669e-05
3.2858641e-05
-1.3606091e-05
3.3378885e-05
-1.6313323e-05
3.3986809e-05
-1.9554662e-05
3.4694317e-05
-2.3431074e-05
3.5532888e-05
-2.8060895e-05
3.6529054e-05
-3.3577979e-05
3.7677509e-05
-4.0130311e-05
3.8934803e-05
-4.7875939e-05
4.0251316e-05
-5.6971501e-05
4.1594439e-05
-6.7556485e-05
4.2928899e-05
-7.9745903e-05
4.4166832e-05
-9.3589811e-05
4.5191566e-05
-0.00010904045
4.5828007e-05
-0.00012594564
4.5631294e-05
-0.00014382201
4.3466473e-05
-0.00016100012
4.1020768e-05
-0.00017744617
4.0232334e-05
-0.00019733293
3.7542728e-05
-0.00021949205
3.3111743e-05
-0.00023857452
2.5629326e-05
-0.00025184114
1.5067324e-05
-0.000255421
2.1132875e-07
-0.00024571686
-2.1495866e-05
-0.00021619773
-4.9065111e-05
-0.00016269886
-8.476264e-05
-8.2198341e-05
-0.00012709576
2.8075457e-05
-0.00018677755
0.00018551756
-0.00025475176
0.00039859261
-0.00033061271
0.00065090269
-0.00041218191
0.00093528053
-0.00051799515
0.0012665307
-0.00063249918
0.0016469034
-0.0007482797
0.0020406878
-0.00085559339
0.0024171968
-0.00094584383
0.0027555026
-0.00099035514
0.0030213497
-0.00082706345
0.0029642971