/*--------------------------------*- C++ -*----------------------------------*\
  =========                 |
  \\      /  F ield         | OpenFOAM: The Open Source CFD Toolbox
   \\    /   O peration     | Website:  https://openfoam.org
    \\  /    A nd           | Version:  8
     \\/     M anipulation  |
\*---------------------------------------------------------------------------*/
FoamFile
{
    version     2.0;
    format      ascii;
    class       volScalarField;
    location    "0.250004";
    object      nut;
}
// * * * * * * * * * * * * * * * * * * * * * * * * * * * * * * * * * * * * * //

dimensions      [0 2 -1 0 0 0 0];

internalField   nonuniform List<scalar> 
20000
(
0.0012841046
0.0031064181
0.0040805302
0.00433554
0.003736004
0.0017812349
0.00012517266
5.2042687e-09
3.2610084e-09
3.2228287e-09
3.0828754e-09
3.1035113e-09
3.0360813e-09
3.0667612e-09
3.053562e-09
3.0914917e-09
3.108501e-09
3.1553705e-09
3.2000283e-09
3.2712727e-09
3.3531846e-09
3.4670654e-09
3.6053259e-09
3.7807698e-09
3.990165e-09
4.240273e-09
4.5219135e-09
4.8326555e-09
5.161231e-09
5.4909498e-09
5.8059917e-09
6.0949921e-09
6.349702e-09
6.5663609e-09
6.7444098e-09
6.8877765e-09
7.001011e-09
7.0899662e-09
7.1590825e-09
7.2132562e-09
7.2566965e-09
7.2918611e-09
7.3219278e-09
7.3500328e-09
7.3789249e-09
7.4021957e-09
7.425556e-09
7.4415372e-09
7.4496655e-09
7.3876814e-09
0.0012833701
0.0030708215
0.0039871814
0.0041835232
0.0035327247
0.0015238352
5.4297017e-05
4.2873758e-09
3.1757094e-09
3.1437751e-09
3.0093843e-09
3.0321837e-09
2.9672771e-09
2.9996054e-09
2.9885325e-09
3.0292149e-09
3.0490706e-09
3.0997735e-09
3.1486886e-09
3.2252649e-09
3.3141498e-09
3.4332822e-09
3.5760325e-09
3.7556435e-09
3.9704308e-09
4.2259803e-09
4.5142146e-09
4.8307388e-09
5.1619258e-09
5.496452e-09
5.8151203e-09
6.1053512e-09
6.3596007e-09
6.5748139e-09
6.7513235e-09
6.8931356e-09
7.005063e-09
7.0930004e-09
7.1614553e-09
7.2153307e-09
7.2585016e-09
7.2934553e-09
7.3234329e-09
7.3517554e-09
7.3806416e-09
7.4035218e-09
7.4269054e-09
7.4411557e-09
7.4495741e-09
7.3871617e-09
0.0012731794
0.0030237016
0.0038952506
0.0040380128
0.003342394
0.0013006168
1.930954e-05
3.8569127e-09
3.1189896e-09
3.0922931e-09
2.9619831e-09
2.9868154e-09
2.9235412e-09
2.9576337e-09
2.9489931e-09
2.9924239e-09
3.0162807e-09
3.0715661e-09
3.1248373e-09
3.2053167e-09
3.2971272e-09
3.4193437e-09
3.5659824e-09
3.7489882e-09
3.9667539e-09
4.2251251e-09
4.5149248e-09
4.8355562e-09
5.1735522e-09
5.5108985e-09
5.8301805e-09
6.1194579e-09
6.3719159e-09
6.584895e-09
6.7591141e-09
6.8988411e-09
7.0091914e-09
7.0959858e-09
7.1637143e-09
7.2172367e-09
7.2602465e-09
7.2951128e-09
7.3251509e-09
7.3539137e-09
7.3829662e-09
7.4062665e-09
7.4284258e-09
7.4427475e-09
7.4480577e-09
7.3848436e-09
0.0012638183
0.0029797331
0.0038105254
0.0038994692
0.0031550707
0.0011019938
6.0133821e-06
3.6316966e-09
3.0801182e-09
3.0576325e-09
2.9306017e-09
2.9576894e-09
2.8974906e-09
2.9349302e-09
2.9293444e-09
2.9756938e-09
3.0017039e-09
3.058809e-09
3.1140418e-09
3.196648e-09
3.2905789e-09
3.4145258e-09
3.5630812e-09
3.747026e-09
3.9660646e-09
4.2270822e-09
4.5258871e-09
4.8539002e-09
5.1957007e-09
5.5347589e-09
5.8535671e-09
6.140592e-09
6.3898453e-09
6.599332e-09
6.7702954e-09
6.9071888e-09
7.0153168e-09
7.1004583e-09
7.1670855e-09
7.219976e-09
7.2625483e-09
7.2970931e-09
7.3270481e-09
7.3561105e-09
7.3852155e-09
7.4088724e-09
7.4302257e-09
7.44266e-09
7.446923e-09
7.3838422e-09
0.0012544392
0.002936083
0.0037246812
0.003770138
0.0029670558
0.00092352174
1.7632174e-06
3.5083916e-09
3.0562727e-09
3.0385102e-09
2.9147452e-09
2.9445147e-09
2.8861217e-09
2.9252083e-09
2.9205697e-09
2.9681848e-09
2.995532e-09
3.0539754e-09
3.1105582e-09
3.1946285e-09
3.2893016e-09
3.4140264e-09
3.5637063e-09
3.7523893e-09
3.9782e-09
4.2462995e-09
4.5505497e-09
4.8833496e-09
5.22821e-09
5.5671732e-09
5.8835866e-09
6.1667401e-09
6.4115316e-09
6.6165681e-09
6.7834929e-09
6.9169659e-09
7.0224436e-09
7.1056306e-09
7.1709404e-09
7.2230483e-09
7.2650838e-09
7.299236e-09
7.3291134e-09
7.3584993e-09
7.3876435e-09
7.4121532e-09
7.4319601e-09
7.4427036e-09
7.4453703e-09
7.382678e-09
0.0012459047
0.0028934472
0.0036401084
0.0036381588
0.0027764598
0.00076485387
5.265319e-07
3.4401779e-09
3.0421762e-09
3.0284602e-09
2.9067984e-09
2.9384368e-09
2.8811733e-09
2.9209511e-09
2.9172301e-09
2.9657381e-09
2.993985e-09
3.052779e-09
3.1099372e-09
3.1946637e-09
3.292251e-09
3.4215692e-09
3.5768855e-09
3.7708282e-09
4.0021533e-09
4.2761729e-09
4.5867684e-09
4.9239721e-09
5.2701636e-09
5.6076499e-09
5.9202871e-09
6.1982403e-09
6.4373784e-09
6.6369821e-09
6.799091e-09
6.9285455e-09
7.030898e-09
7.1117718e-09
7.1755093e-09
7.226638e-09
7.2679653e-09
7.301594e-09
7.3313678e-09
7.3610345e-09
7.390167e-09
7.4154362e-09
7.4335037e-09
7.4424748e-09
7.4434852e-09
7.3816646e-09
0.0012380938
0.0028522404
0.0035578332
0.0035102433
0.0025820712
0.0006280229
1.6929982e-07
3.399873e-09
3.0342229e-09
3.0230824e-09
2.9033327e-09
2.9355239e-09
2.8797936e-09
2.9197156e-09
2.9163232e-09
2.9651529e-09
2.9940992e-09
3.0550999e-09
3.1154229e-09
3.2040731e-09
3.3056671e-09
3.4389999e-09
3.5991495e-09
3.7990012e-09
4.0371449e-09
4.3178985e-09
4.6338273e-09
4.9742509e-09
5.3207445e-09
5.6553677e-09
5.9628118e-09
6.2342967e-09
6.4667249e-09
6.6600532e-09
6.8166687e-09
6.9415857e-09
7.0404155e-09
7.1186825e-09
7.1806381e-09
7.2306309e-09
7.2711133e-09
7.3041316e-09
7.3338263e-09
7.3637632e-09
7.3928996e-09
7.4183892e-09
7.4342833e-09
7.4414081e-09
7.4407257e-09
7.3803552e-09
0.0012305387
0.0028107174
0.0034759309
0.0033834071
0.0023835212
0.00050544783
6.0822583e-08
3.3759686e-09
3.0328258e-09
3.0195502e-09
2.8992207e-09
2.9315399e-09
2.8799665e-09
2.9207946e-09
2.9191057e-09
2.9701143e-09
3.0016631e-09
3.0651886e-09
3.1283072e-09
3.2201309e-09
3.3258662e-09
3.4641888e-09
3.6302778e-09
3.8365418e-09
4.0815713e-09
4.3689748e-09
4.6903387e-09
5.0334116e-09
5.3790684e-09
5.7096229e-09
6.0106621e-09
6.2745664e-09
6.4993339e-09
6.6856186e-09
6.8361276e-09
6.956033e-09
7.0509709e-09
7.1263547e-09
7.1863303e-09
7.2350338e-09
7.2745272e-09
7.3068559e-09
7.3365095e-09
7.3667064e-09
7.3958695e-09
7.4206176e-09
7.4346081e-09
7.4402489e-09
7.4368355e-09
7.3786409e-09
0.0012225017
0.0027692082
0.0033939679
0.003255666
0.0021808498
0.00039531199
2.5509253e-08
3.3641086e-09
3.0316771e-09
3.0188502e-09
2.8979412e-09
2.9305979e-09
2.885385e-09
2.9277802e-09
2.9278012e-09
2.9805738e-09
3.0142275e-09
3.0803858e-09
3.1468328e-09
3.242535e-09
3.3528663e-09
3.4963392e-09
3.6685807e-09
3.8818355e-09
4.1344772e-09
4.4289416e-09
4.7554321e-09
5.1004397e-09
5.4443011e-09
5.7696422e-09
6.0631461e-09
6.3184683e-09
6.5347478e-09
6.7133301e-09
6.8572054e-09
6.9716911e-09
7.0624224e-09
7.1346888e-09
7.1925156e-09
7.2397943e-09
7.2781714e-09
7.30976e-09
7.3394345e-09
7.3699182e-09
7.3989767e-09
7.4221643e-09
7.4346652e-09
7.439655e-09
7.4307217e-09
7.3762942e-09
0.0012144126
0.0027278781
0.0033110557
0.0031235571
0.001977013
0.00029647955
1.2910081e-08
3.3639094e-09
3.0378262e-09
3.0223662e-09
2.9038995e-09
2.9346164e-09
2.8946807e-09
2.9388903e-09
2.9407451e-09
2.9954937e-09
3.0316087e-09
3.100538e-09
3.1703499e-09
3.2699446e-09
3.385152e-09
3.5343603e-09
3.7134641e-09
3.9343327e-09
4.1950389e-09
4.4967506e-09
4.8282454e-09
5.1745596e-09
5.5156525e-09
5.8347159e-09
6.1196655e-09
6.3655192e-09
6.5725943e-09
6.7429078e-09
6.8796981e-09
6.9884136e-09
7.0746686e-09
7.1436181e-09
7.1991504e-09
7.2448771e-09
7.282026e-09
7.3128483e-09
7.3426149e-09
7.3734573e-09
7.4020609e-09
7.4233748e-09
7.434612e-09
7.4390693e-09
7.4225724e-09
7.3734351e-09
0.0012065023
0.0026873712
0.0032278771
0.0029951271
0.0017746105
0.00020736597
7.8946003e-09
3.3620622e-09
3.0449479e-09
3.0300194e-09
2.9151126e-09
2.9466522e-09
2.908198e-09
2.9538243e-09
2.9574805e-09
3.0141423e-09
3.0527006e-09
3.1245212e-09
3.198004e-09
3.3018899e-09
3.422422e-09
3.5778116e-09
3.7643133e-09
3.9934217e-09
4.2627493e-09
4.5719246e-09
4.9081137e-09
5.2550089e-09
5.5923706e-09
5.9041291e-09
6.179585e-09
6.4151897e-09
6.612454e-09
6.7740318e-09
6.9033659e-09
7.0060231e-09
7.0875833e-09
7.1530574e-09
7.2061758e-09
7.2502333e-09
7.2860668e-09
7.3161271e-09
7.3460595e-09
7.3773838e-09
7.4052365e-09
7.4244358e-09
7.4344807e-09
7.4380489e-09
7.4136468e-09
7.3703271e-09
0.0011987323
0.0026479967
0.0031468558
0.0028681384
0.0015758311
0.0001289557
5.6810529e-09
3.3628994e-09
3.0531865e-09
3.0411823e-09
2.9280292e-09
2.9610961e-09
2.924334e-09
2.9715733e-09
2.9771977e-09
3.0359243e-09
3.077158e-09
3.1520571e-09
3.2294414e-09
3.3378939e-09
3.4641698e-09
3.6262987e-09
3.8208473e-09
4.058823e-09
4.3372133e-09
4.6539272e-09
4.9944303e-09
5.3411236e-09
5.6737547e-09
5.9772181e-09
6.2423202e-09
6.4669948e-09
6.6539429e-09
6.8064076e-09
6.9279867e-09
7.0243549e-09
7.101049e-09
7.1629279e-09
7.213539e-09
7.2558196e-09
7.2902742e-09
7.3196103e-09
7.3497754e-09
7.3817451e-09
7.4085391e-09
7.4253995e-09
7.433468e-09
7.4362935e-09
7.4048247e-09
7.3672325e-09
0.0011910568
0.0026095131
0.0030686205
0.0027403731
0.0013823187
6.63694e-05
4.617402e-09
3.3657827e-09
3.0637124e-09
3.0542491e-09
2.943282e-09
2.9780804e-09
2.9430683e-09
2.9919484e-09
2.9996921e-09
3.0605445e-09
3.1046169e-09
3.1827765e-09
3.2643725e-09
3.3777751e-09
3.5102821e-09
3.679697e-09
3.8829095e-09
4.130356e-09
4.418198e-09
4.7424132e-09
5.0866846e-09
5.4322721e-09
5.7591338e-09
6.0533328e-09
6.3072892e-09
6.5204461e-09
6.6966715e-09
6.8397344e-09
6.9533312e-09
7.0432372e-09
7.1149424e-09
7.1731463e-09
7.2211844e-09
7.2615989e-09
7.2946311e-09
7.3233193e-09
7.3537816e-09
7.3864725e-09
7.4116093e-09
7.4263352e-09
7.4319762e-09
7.4328494e-09
7.3965626e-09
7.3643565e-09
0.0011834807
0.002570699
0.0029895001
0.0026100091
0.0011969019
2.7133283e-05
4.0831575e-09
3.3719883e-09
3.0763088e-09
3.069514e-09
2.9607252e-09
2.9971921e-09
2.9640487e-09
3.0146838e-09
3.0246789e-09
3.0877996e-09
3.1349065e-09
3.2165461e-09
3.3026685e-09
3.4214001e-09
3.5606345e-09
3.7379169e-09
3.9504388e-09
4.207929e-09
4.505504e-09
4.8370254e-09
5.1843803e-09
5.5278522e-09
5.8478735e-09
6.1318678e-09
6.3739556e-09
6.5750956e-09
6.7402828e-09
6.8737347e-09
6.9791861e-09
7.062509e-09
7.1291468e-09
7.1836318e-09
7.2290549e-09
7.2675436e-09
7.2991257e-09
7.3272809e-09
7.358128e-09
7.3910565e-09
7.4141405e-09
7.4270039e-09
7.4309869e-09
7.426849e-09
7.3893042e-09
7.3617721e-09
0.0011759138
0.002531924
0.0029098642
0.002475732
0.0010216004
9.0376006e-06
3.8097102e-09
3.3813726e-09
3.0908418e-09
3.0866105e-09
2.980319e-09
3.0183877e-09
2.987224e-09
3.0396468e-09
3.0520661e-09
3.1175429e-09
3.167908e-09
3.2532708e-09
3.3442778e-09
3.4687695e-09
3.6152635e-09
3.8010146e-09
4.0234867e-09
4.2915503e-09
4.5990251e-09
4.9374882e-09
5.2870604e-09
5.6272903e-09
5.9393605e-09
6.2122342e-09
6.4417952e-09
6.6305047e-09
6.7844276e-09
6.9081351e-09
7.0053398e-09
7.0820099e-09
7.1435456e-09
7.1943022e-09
7.2370849e-09
7.2736067e-09
7.3037499e-09
7.331517e-09
7.3628931e-09
7.3951908e-09
7.416029e-09
7.4272458e-09
7.4304449e-09
7.4187801e-09
7.3833738e-09
7.3595316e-09
0.0011683409
0.0024933078
0.0028295655
0.002339165
0.00085862554
2.6606131e-06
3.6712802e-09
3.3924995e-09
3.107398e-09
3.10561e-09
3.0018761e-09
3.0415247e-09
3.0124257e-09
3.0667245e-09
3.0817375e-09
3.1497261e-09
3.2035786e-09
3.2929302e-09
3.3892073e-09
3.5199065e-09
3.6742144e-09
3.8690504e-09
4.1021215e-09
4.3812166e-09
4.698627e-09
5.0434805e-09
5.3942477e-09
5.7300186e-09
6.0330056e-09
6.2938815e-09
6.5103281e-09
6.686278e-09
6.8287925e-09
6.9426878e-09
7.0316e-09
7.1015927e-09
7.1580314e-09
7.2050802e-09
7.2452082e-09
7.279698e-09
7.308494e-09
7.336028e-09
7.3681181e-09
7.3987794e-09
7.4174632e-09
7.427336e-09
7.4300339e-09
7.4103358e-09
7.3785309e-09
7.3576699e-09
0.001160878
0.0024553158
0.0027485242
0.0021983584
0.0007093406
7.5885683e-07
3.6044808e-09
3.4055076e-09
3.1258392e-09
3.1263083e-09
3.025206e-09
3.0664775e-09
3.0395898e-09
3.095851e-09
3.113644e-09
3.1842933e-09
3.2419084e-09
3.3355566e-09
3.4375258e-09
3.5749205e-09
3.7376243e-09
3.9421952e-09
4.1865013e-09
4.4770164e-09
4.804228e-09
5.1547264e-09
5.5054915e-09
5.8354879e-09
6.128242e-09
6.3762793e-09
6.5790945e-09
6.7420374e-09
6.8730744e-09
6.9771524e-09
7.0577809e-09
7.1211149e-09
7.1725007e-09
7.2158902e-09
7.2533834e-09
7.2858581e-09
7.313333e-09
7.3407872e-09
7.37367e-09
7.4020222e-09
7.4186934e-09
7.4273314e-09
7.4295299e-09
7.4023901e-09
7.3743132e-09
7.3560976e-09
0.0011537312
0.0024186061
0.002668412
0.0020511018
0.00057501296
2.2866209e-07
3.5764827e-09
3.4201418e-09
3.145897e-09
3.1485743e-09
3.0502479e-09
3.0932152e-09
3.0686766e-09
3.1270184e-09
3.1477607e-09
3.2212777e-09
3.2829379e-09
3.381219e-09
3.4893254e-09
3.6339243e-09
3.8056266e-09
4.0206032e-09
4.2767571e-09
4.5789766e-09
4.9156716e-09
5.2708672e-09
5.6202887e-09
5.9431318e-09
6.2245151e-09
6.4589297e-09
6.6476766e-09
6.7974474e-09
6.917005e-09
7.0113171e-09
7.0837186e-09
7.1404506e-09
7.1868611e-09
7.226662e-09
7.2615491e-09
7.29203e-09
7.3182614e-09
7.3457556e-09
7.3792537e-09
7.4052002e-09
7.419957e-09
7.4272722e-09
7.4284035e-09
7.3955086e-09
7.3703778e-09
7.354657e-09
0.001146827
0.0023828991
0.0025969245
0.0018971287
0.00045902916
7.9840414e-08
3.5692079e-09
3.4361866e-09
3.1674669e-09
3.1724136e-09
3.0770036e-09
3.1217454e-09
3.0996981e-09
3.1602124e-09
3.184123e-09
3.2606958e-09
3.3267429e-09
3.4300299e-09
3.5447509e-09
3.6970914e-09
3.8784388e-09
4.1045224e-09
4.3731109e-09
4.6871893e-09
5.0328436e-09
5.3915716e-09
5.738157e-09
6.0524062e-09
6.3212899e-09
6.5413549e-09
6.7156758e-09
6.8521869e-09
6.9603271e-09
7.0449847e-09
7.1092575e-09
7.1594831e-09
7.2010255e-09
7.2373305e-09
7.2696529e-09
7.2981654e-09
7.3232753e-09
7.3509104e-09
7.384651e-09
7.408327e-09
7.4213664e-09
7.4272205e-09
7.4261055e-09
7.3899054e-09
7.3666683e-09
7.353162e-09
0.0011399341
0.0023462108
0.0025202907
0.0017354996
0.00035616046
3.3243081e-08
3.57306e-09
3.4539104e-09
3.1907249e-09
3.1978969e-09
3.1055092e-09
3.1520585e-09
3.132635e-09
3.1954487e-09
3.2227625e-09
3.302647e-09
3.3734322e-09
3.4821236e-09
3.6039442e-09
3.7645918e-09
3.9562643e-09
4.1941702e-09
4.4757179e-09
4.8016426e-09
5.1555087e-09
5.51641e-09
5.8585525e-09
6.1627448e-09
6.4180396e-09
6.6231064e-09
6.7827292e-09
6.905968e-09
7.0028189e-09
7.077997e-09
7.1342639e-09
7.1781154e-09
7.2149185e-09
7.2478381e-09
7.2776511e-09
7.3042535e-09
7.328381e-09
7.3562633e-09
7.3896795e-09
7.411208e-09
7.4226315e-09
7.4274048e-09
7.4220443e-09
7.3855102e-09
7.363288e-09
7.3514795e-09
0.0011333111
0.0023096581
0.0024453373
0.0015689795
0.00026373053
1.6737953e-08
3.5837733e-09
3.4731667e-09
3.2155759e-09
3.2249731e-09
3.1356929e-09
3.1841382e-09
3.167501e-09
3.232788e-09
3.2637731e-09
3.3472321e-09
3.4231374e-09
3.5376436e-09
3.6670943e-09
3.8366633e-09
4.0394002e-09
4.2898608e-09
4.5848146e-09
4.9223782e-09
5.2834666e-09
5.6449741e-09
5.9809528e-09
6.2735983e-09
6.5142617e-09
6.7037619e-09
6.848491e-09
6.9585127e-09
7.044277e-09
7.1102192e-09
7.1586123e-09
7.1962587e-09
7.2284722e-09
7.2581329e-09
7.285502e-09
7.3102701e-09
7.3335829e-09
7.3618573e-09
7.3942028e-09
7.4137808e-09
7.4238175e-09
7.4280265e-09
7.4169968e-09
7.3814963e-09
7.3602559e-09
7.3496328e-09
0.0011269226
0.0022725526
0.0023691295
0.0014009978
0.00018127252
1.0188405e-08
3.5988231e-09
3.4939394e-09
3.2419149e-09
3.2535899e-09
3.1675805e-09
3.2180192e-09
3.2043841e-09
3.2723192e-09
3.30728e-09
3.3945888e-09
3.4759976e-09
3.5967486e-09
3.7343863e-09
3.9135446e-09
4.1281186e-09
4.3918538e-09
4.7005231e-09
5.0492965e-09
5.4163684e-09
5.7767358e-09
6.1047484e-09
6.3843794e-09
6.6094611e-09
6.7829339e-09
6.9126526e-09
7.0095839e-09
7.084553e-09
7.1415467e-09
7.1821997e-09
7.213834e-09
7.2416329e-09
7.2681715e-09
7.2931706e-09
7.316195e-09
7.3388725e-09
7.3677161e-09
7.3981968e-09
7.4160532e-09
7.4247748e-09
7.4281222e-09
7.4112872e-09
7.3776277e-09
7.3576231e-09
7.3476774e-09
0.0011208756
0.0022347452
0.0022921146
0.0012427051
0.00011046869
7.2879248e-09
3.6168672e-09
3.5162077e-09
3.2698456e-09
3.2837814e-09
3.2012276e-09
3.2538105e-09
3.24339e-09
3.3141708e-09
3.3533903e-09
3.4448359e-09
3.5321613e-09
3.6596251e-09
3.8060705e-09
3.9955542e-09
4.2228005e-09
4.5004968e-09
4.8230455e-09
5.1823378e-09
5.5538934e-09
5.911179e-09
6.2293462e-09
6.4945228e-09
6.7031771e-09
6.8602745e-09
6.9749399e-09
7.058988e-09
7.123552e-09
7.171859e-09
7.2049375e-09
7.2307529e-09
7.2543564e-09
7.2779163e-09
7.3006263e-09
7.3220042e-09
7.3442182e-09
7.3736008e-09
7.4018668e-09
7.4179938e-09
7.4255511e-09
7.4281652e-09
7.4052943e-09
7.3737938e-09
7.355145e-09
7.3458616e-09
0.0011147563
0.002194226
0.002212242
0.0010932036
5.663795e-05
5.888609e-09
3.6371317e-09
3.5400901e-09
3.299396e-09
3.3157723e-09
3.2367453e-09
3.291637e-09
3.2846265e-09
3.3584495e-09
3.4022175e-09
3.4981125e-09
3.5917871e-09
3.7264795e-09
3.882403e-09
4.0830174e-09
4.3237717e-09
4.616051e-09
4.9524109e-09
5.3212666e-09
5.6955359e-09
6.0476537e-09
6.3540676e-09
6.6034414e-09
6.7949779e-09
6.9354796e-09
7.0351455e-09
7.1066268e-09
7.1612488e-09
7.2009995e-09
7.2267665e-09
7.246923e-09
7.2666099e-09
7.2873384e-09
7.3078462e-09
7.3276784e-09
7.3495747e-09
7.3794672e-09
7.4053062e-09
7.4196613e-09
7.4261522e-09
7.4279896e-09
7.3991839e-09
7.3701196e-09
7.3528571e-09
7.34418e-09
0.0011084017
0.0021498308
0.0021285015
0.00095299872
2.3897779e-05
5.174523e-09
3.659439e-09
3.5655364e-09
3.3307046e-09
3.3496257e-09
3.2742768e-09
3.331564e-09
3.328193e-09
3.4052563e-09
3.4538805e-09
3.5545527e-09
3.6550665e-09
3.7975696e-09
3.9637302e-09
4.1763432e-09
4.4314758e-09
4.7388448e-09
5.0887281e-09
5.4658642e-09
5.840817e-09
6.1855236e-09
6.4782662e-09
6.710616e-09
6.8845066e-09
7.0082858e-09
7.0931278e-09
7.1524976e-09
7.1976148e-09
7.2287637e-09
7.2476361e-09
7.2622646e-09
7.2783573e-09
7.2964148e-09
7.3148156e-09
7.3332141e-09
7.3549234e-09
7.3852369e-09
7.4086455e-09
7.4212307e-09
7.4265585e-09
7.4276888e-09
7.3933947e-09
7.366727e-09
7.3508451e-09
7.3426656e-09
0.0011016479
0.0021016387
0.0020398196
0.00082292049
8.6372803e-06
4.800661e-09
3.6834714e-09
3.592596e-09
3.363749e-09
3.3853836e-09
3.3138803e-09
3.3736915e-09
3.3741656e-09
3.4546923e-09
3.5085061e-09
3.6143269e-09
3.7222244e-09
3.8731891e-09
4.0504103e-09
4.2759318e-09
4.5462717e-09
4.8690652e-09
5.231882e-09
5.6156925e-09
5.9890555e-09
6.3240134e-09
6.6012609e-09
6.8155967e-09
6.9714735e-09
7.0784487e-09
7.1488025e-09
7.1966613e-09
7.2324818e-09
7.2550292e-09
7.2674812e-09
7.276776e-09
7.2895524e-09
7.3051309e-09
7.3215299e-09
7.3386375e-09
7.3603381e-09
7.3907722e-09
7.41188e-09
7.4228575e-09
7.42681e-09
7.4260507e-09
7.3883496e-09
7.3637327e-09
7.3490947e-09
7.3413454e-09
0.0010942765
0.0020489519
0.0019432122
0.00070388541
2.8680927e-06
4.6048542e-09
3.7095204e-09
3.6215186e-09
3.3987785e-09
3.4230034e-09
3.3555623e-09
3.4181022e-09
3.4226479e-09
3.506874e-09
3.5662389e-09
3.6776374e-09
3.7935349e-09
3.9537051e-09
4.142885e-09
4.3822839e-09
4.6686174e-09
5.0069765e-09
5.3818102e-09
5.7703439e-09
6.1395975e-09
6.4624149e-09
6.7225207e-09
6.9181246e-09
7.055667e-09
7.145729e-09
7.2020751e-09
7.2390727e-09
7.2654621e-09
7.279874e-09
7.2861658e-09
7.2905839e-09
7.3001386e-09
7.3134751e-09
7.3279914e-09
7.3439951e-09
7.3659579e-09
7.3958995e-09
7.4147611e-09
7.4241778e-09
7.42755e-09
7.4222374e-09
7.38422e-09
7.361168e-09
7.3475791e-09
7.340194e-09
0.0010863794
0.0019919508
0.0018339279
0.00059790114
9.347318e-07
4.5051683e-09
3.7374631e-09
3.6522303e-09
3.4356853e-09
3.4626802e-09
3.3994444e-09
3.4648718e-09
3.4737599e-09
3.5619305e-09
3.6272695e-09
3.7447413e-09
3.8693308e-09
4.0395146e-09
4.2416012e-09
4.4958499e-09
4.7988403e-09
5.1526265e-09
5.5381775e-09
5.9291445e-09
6.2915951e-09
6.5999681e-09
6.8416383e-09
7.0180464e-09
7.1368298e-09
7.2099006e-09
7.2527821e-09
7.279319e-09
7.2963729e-09
7.3034642e-09
7.3035094e-09
7.3039085e-09
7.3100891e-09
7.3214377e-09
7.334203e-09
7.3493399e-09
7.3719153e-09
7.4004588e-09
7.417271e-09
7.4252164e-09
7.4279305e-09
7.4169526e-09
7.3804786e-09
7.3589688e-09
7.3463089e-09
7.3391999e-09
0.0010781726
0.0019321713
0.001715495
0.00050274589
3.1532827e-07
4.4588444e-09
3.7673161e-09
3.6848424e-09
3.4746988e-09
3.5045609e-09
3.44553e-09
3.5140817e-09
3.5276351e-09
3.6200395e-09
3.6918242e-09
3.815943e-09
3.9500027e-09
4.1310872e-09
4.3470905e-09
4.6171793e-09
4.9373572e-09
5.3061316e-09
5.7006924e-09
6.0914649e-09
6.444291e-09
6.7361125e-09
6.9584614e-09
7.1151673e-09
7.2145004e-09
7.2708434e-09
7.3006833e-09
7.3169378e-09
7.3252044e-09
7.3259355e-09
7.3194941e-09
7.316784e-09
7.3194684e-09
7.3290029e-09
7.340162e-09
7.3547105e-09
7.3781163e-09
7.4044797e-09
7.4193819e-09
7.426014e-09
7.4279635e-09
7.4108083e-09
7.376799e-09
7.3570489e-09
7.3452825e-09
7.3383705e-09
0.0010698442
0.001870343
0.0015886021
0.00040927424
1.1630444e-07
4.44293e-09
3.7991254e-09
3.7194764e-09
3.5158052e-09
3.5486201e-09
3.4940308e-09
3.5658798e-09
3.5844324e-09
3.6814182e-09
3.7602082e-09
3.8915771e-09
4.0359916e-09
4.2289088e-09
4.4598708e-09
4.7467157e-09
5.0843906e-09
5.4673025e-09
5.8687445e-09
6.2564016e-09
6.5968168e-09
6.8703913e-09
7.0728166e-09
7.2087e-09
7.2882771e-09
7.3282947e-09
7.3455836e-09
7.3519819e-09
7.3527893e-09
7.3468055e-09
7.3344016e-09
7.328775e-09
7.3284621e-09
7.3361472e-09
7.3458636e-09
7.3601075e-09
7.3842968e-09
7.4081449e-09
7.421167e-09
7.4266655e-09
7.4278286e-09
7.4039377e-09
7.3731491e-09
7.3552918e-09
7.3444709e-09
7.3376813e-09
0.0010614388
0.00180657
0.0014576887
0.0003278474
5.1016497e-08
4.4444861e-09
3.8327917e-09
3.756058e-09
3.5589979e-09
3.5948609e-09
3.5451246e-09
3.6204225e-09
3.6443773e-09
3.7463529e-09
3.8327596e-09
3.9720932e-09
4.1277764e-09
4.3335425e-09
4.5805417e-09
4.8850232e-09
5.2402333e-09
5.6360231e-09
6.0417675e-09
6.423164e-09
6.7485307e-09
7.0026489e-09
7.1841686e-09
7.2979231e-09
7.3576583e-09
7.382089e-09
7.3876276e-09
7.3851531e-09
7.3787195e-09
7.3661954e-09
7.3483538e-09
7.339582e-09
7.3372311e-09
7.3428436e-09
7.3513089e-09
7.3655037e-09
7.390312e-09
7.4115399e-09
7.422804e-09
7.4272454e-09
7.4275859e-09
7.3972449e-09
7.3696569e-09
7.3536995e-09
7.3438644e-09
7.3371675e-09
0.0010528584
0.0017390715
0.0013336623
0.00025301807
2.5897831e-08
4.4559433e-09
3.8682526e-09
3.7946363e-09
3.6043883e-09
3.6435288e-09
3.5988996e-09
3.6778989e-09
3.7077461e-09
3.8151726e-09
3.9098993e-09
4.0580185e-09
4.2258828e-09
4.4455426e-09
4.709667e-09
5.0324749e-09
5.4049105e-09
5.8117779e-09
6.2188625e-09
6.5907597e-09
6.8988561e-09
7.1326361e-09
7.2913446e-09
7.38214e-09
7.4222963e-09
7.4324768e-09
7.427544e-09
7.4161788e-09
7.4030125e-09
7.3840872e-09
7.3612317e-09
7.3495034e-09
7.3456592e-09
7.3490893e-09
7.3565226e-09
7.3709073e-09
7.3960113e-09
7.4146749e-09
7.4243285e-09
7.427755e-09
7.4261978e-09
7.3911221e-09
7.3664782e-09
7.3522707e-09
7.3434196e-09
7.3368442e-09
0.0010446876
0.0016677796
0.0012078501
0.00018431293
1.5398522e-08
4.4734327e-09
3.9055063e-09
3.835321e-09
3.6521472e-09
3.6947993e-09
3.6555829e-09
3.7386381e-09
3.7748666e-09
3.8882769e-09
3.9920736e-09
4.149852e-09
4.3308702e-09
4.5655628e-09
4.8478892e-09
5.1895731e-09
5.5784827e-09
5.9941482e-09
6.3992151e-09
6.7584631e-09
7.0475628e-09
7.2595558e-09
7.3933684e-09
7.4606909e-09
7.4826226e-09
7.4803972e-09
7.4646609e-09
7.4452279e-09
7.4256324e-09
7.4005114e-09
7.3730267e-09
7.3586477e-09
7.3536661e-09
7.3549467e-09
7.3615644e-09
7.3764352e-09
7.4012553e-09
7.4174419e-09
7.4254344e-09
7.4280843e-09
7.4226709e-09
7.3859408e-09
7.3637472e-09
7.3510341e-09
7.3430553e-09
7.3366268e-09
0.0010378785
0.0016036618
0.0010845618
0.00012303204
1.0552415e-08
4.494881e-09
3.9448407e-09
3.8784001e-09
3.7025157e-09
3.748896e-09
3.7154267e-09
3.8029713e-09
3.8461279e-09
3.9660958e-09
4.0797765e-09
4.2481032e-09
4.44333e-09
4.6942352e-09
4.9957579e-09
5.3565307e-09
5.7606242e-09
6.1822539e-09
6.5817372e-09
6.9254896e-09
7.1943101e-09
7.3819118e-09
7.4892758e-09
7.5334437e-09
7.540058e-09
7.5249903e-09
7.49926e-09
7.472294e-09
7.4466137e-09
7.415493e-09
7.3838239e-09
7.3671124e-09
7.3610409e-09
7.3605601e-09
7.366519e-09
7.3822693e-09
7.4058322e-09
7.4197522e-09
7.4262783e-09
7.4281505e-09
7.4169173e-09
7.381835e-09
7.3614888e-09
7.350049e-09
7.3428442e-09
7.3364685e-09
0.0010314733
0.0015362364
0.00096410355
7.2408132e-05
8.1360328e-09
4.5192385e-09
3.9865104e-09
3.9241063e-09
3.7557003e-09
3.806092e-09
3.7788124e-09
3.8711914e-09
3.9219861e-09
4.0490956e-09
4.1735278e-09
4.3533502e-09
4.5639304e-09
4.8322906e-09
5.153933e-09
5.533652e-09
5.9510734e-09
6.3753357e-09
6.7655932e-09
7.0914456e-09
7.3382669e-09
7.4984022e-09
7.5784367e-09
7.6018041e-09
7.5940254e-09
7.5664507e-09
7.5313111e-09
7.4974613e-09
7.4659755e-09
7.4290951e-09
7.3937224e-09
7.3749654e-09
7.3676147e-09
7.3660387e-09
7.3714572e-09
7.3883819e-09
7.4096995e-09
7.4216149e-09
7.4269121e-09
7.4281325e-09
7.4105844e-09
7.3780012e-09
7.3595228e-09
7.3492323e-09
7.3427764e-09
7.3363409e-09
0.001025606
0.0014667386
0.00084894828
3.6711285e-05
6.8609863e-09
4.5465068e-09
4.0303455e-09
3.9725432e-09
3.8120238e-09
3.8667899e-09
3.8461908e-09
3.9436903e-09
4.0029002e-09
4.1377844e-09
4.273868e-09
4.4662226e-09
4.6933602e-09
4.9804196e-09
5.3228564e-09
5.7208397e-09
6.1490802e-09
6.5722279e-09
6.9497991e-09
7.255871e-09
7.4776176e-09
7.6078993e-09
7.660931e-09
7.6668388e-09
7.6441025e-09
7.6047506e-09
7.560955e-09
7.5207872e-09
7.4837625e-09
7.4413949e-09
7.4027587e-09
7.3821664e-09
7.3735855e-09
7.3712952e-09
7.3763777e-09
7.3943133e-09
7.4131678e-09
7.423293e-09
7.4274443e-09
7.4279603e-09
7.4034633e-09
7.3744406e-09
7.3578281e-09
7.3485148e-09
7.342769e-09
7.336224e-09
0.0010203654
0.0013945525
0.00074054478
1.6231653e-05
6.1624106e-09
4.5766542e-09
4.0770777e-09
4.0242088e-09
3.8719116e-09
3.93145e-09
3.9178922e-09
4.0210397e-09
4.0893042e-09
4.2326747e-09
4.381385e-09
4.5874056e-09
4.8324272e-09
5.1394219e-09
5.5030763e-09
5.9180574e-09
6.3540168e-09
6.7720302e-09
7.1337755e-09
7.4181613e-09
7.6106118e-09
7.7096204e-09
7.7384851e-09
7.7277352e-09
7.690426e-09
7.6400267e-09
7.5882807e-09
7.5423479e-09
7.5000191e-09
7.4524593e-09
7.4109366e-09
7.388693e-09
7.3790733e-09
7.3763172e-09
7.38125e-09
7.3998078e-09
7.4162591e-09
7.4248318e-09
7.4279275e-09
7.4272164e-09
7.3967168e-09
7.3711749e-09
7.3565045e-09
7.3480779e-09
7.3427569e-09
7.3361995e-09
0.001016228
0.0013210514
0.00064003425
6.5332096e-06
5.7728537e-09
4.6116611e-09
4.1270546e-09
4.0794834e-09
3.9358337e-09
4.0003277e-09
3.9943438e-09
4.1036158e-09
4.1817035e-09
4.3343257e-09
4.496722e-09
4.7176893e-09
4.981922e-09
5.3100058e-09
5.6947261e-09
6.1247733e-09
6.5646731e-09
6.9735964e-09
7.3168118e-09
7.5762236e-09
7.7359428e-09
7.8035804e-09
7.8121272e-09
7.784081e-09
7.7330362e-09
7.6723864e-09
7.6134124e-09
7.5622235e-09
7.5148031e-09
7.4623389e-09
7.418267e-09
7.3945967e-09
7.3841691e-09
7.381087e-09
7.3860565e-09
7.4048782e-09
7.418887e-09
7.4258906e-09
7.4282649e-09
7.4247465e-09
7.3906075e-09
7.3683039e-09
7.355477e-09
7.3478512e-09
7.3428855e-09
7.3364587e-09
0.0010136422
0.0012519187
0.00054771279
2.515042e-06
5.5569789e-09
4.6516182e-09
4.1806022e-09
4.1387579e-09
4.0039581e-09
4.0737711e-09
4.0759146e-09
4.1918325e-09
4.2806581e-09
4.4432409e-09
4.6206234e-09
4.8579131e-09
5.1428145e-09
5.4928988e-09
5.8980913e-09
6.3404779e-09
6.7801562e-09
7.176109e-09
7.4984615e-09
7.7279344e-09
7.8525821e-09
7.8915859e-09
7.8810391e-09
7.8360239e-09
7.7720792e-09
7.7019727e-09
7.6364691e-09
7.5804995e-09
7.5281703e-09
7.4710699e-09
7.4247763e-09
7.3999309e-09
7.3889402e-09
7.3856293e-09
7.3908897e-09
7.4094585e-09
7.4210374e-09
7.4266392e-09
7.428383e-09
7.4201764e-09
7.3855442e-09
7.3658418e-09
7.3546551e-09
7.3477891e-09
7.3431432e-09
7.3368696e-09
0.0010110462
0.0011716852
0.00046338997
9.7297515e-07
5.442871e-09
4.6948406e-09
4.2377788e-09
4.202094e-09
4.0765485e-09
4.1521451e-09
4.1631e-09
4.286186e-09
4.3867518e-09
4.5603023e-09
4.7539263e-09
5.0090473e-09
5.315988e-09
5.6885729e-09
6.1128465e-09
6.5640864e-09
6.9990918e-09
7.378539e-09
7.6767544e-09
7.87147e-09
7.9601057e-09
7.975129e-09
7.9446057e-09
7.8836303e-09
7.8076909e-09
7.7289299e-09
7.6575768e-09
7.5972644e-09
7.5401778e-09
7.4786898e-09
7.4305092e-09
7.4047529e-09
7.3934736e-09
7.3899962e-09
7.395896e-09
7.4133744e-09
7.4228295e-09
7.4271921e-09
7.4283448e-09
7.413766e-09
7.3815885e-09
7.3637591e-09
7.3539199e-09
7.3477409e-09
7.3434659e-09
7.3373774e-09
0.001008796
0.0010907654
0.00038807448
3.9529779e-07
5.3886822e-09
4.7410241e-09
4.2986023e-09
4.2698138e-09
4.1541191e-09
4.2359849e-09
4.2563947e-09
4.3873017e-09
4.5006643e-09
4.6863834e-09
4.8975616e-09
5.1721863e-09
5.5024197e-09
5.8975641e-09
6.3387451e-09
6.7947011e-09
7.220534e-09
7.5803019e-09
7.8493107e-09
8.0055989e-09
8.0603511e-09
8.0533013e-09
8.0030525e-09
7.9270803e-09
7.840045e-09
7.7534146e-09
7.676858e-09
7.6125931e-09
7.5508595e-09
7.4852394e-09
7.435523e-09
7.4091167e-09
7.3976993e-09
7.394246e-09
7.4010654e-09
7.4166066e-09
7.4244743e-09
7.4276872e-09
7.4281892e-09
7.4069892e-09
7.3778927e-09
7.3619953e-09
7.3534088e-09
7.3478589e-09
7.3438716e-09
7.3379669e-09
0.0010064913
0.0010048456
0.00032087121
1.7545015e-07
5.3684704e-09
4.7911103e-09
4.3639287e-09
4.3425702e-09
4.2372282e-09
4.3258243e-09
4.35636e-09
4.4958071e-09
4.6231854e-09
4.8223471e-09
5.0526407e-09
5.3484268e-09
5.7028924e-09
6.1198732e-09
6.5748448e-09
7.0308324e-09
7.4431316e-09
7.7799704e-09
8.0133501e-09
8.129284e-09
8.1551657e-09
8.1254125e-09
8.0564381e-09
7.966538e-09
7.8693127e-09
7.7755837e-09
7.6944323e-09
7.626547e-09
7.5602245e-09
7.4907706e-09
7.4398882e-09
7.4131185e-09
7.4017831e-09
7.398404e-09
7.4059695e-09
7.4194306e-09
7.4259426e-09
7.4282635e-09
7.4273676e-09
7.3998871e-09
7.3744852e-09
7.360582e-09
7.3531635e-09
7.3481255e-09
7.3443315e-09
7.3386074e-09
0.0010041322
0.00092272426
0.00026151977
8.6916207e-08
5.3714142e-09
4.8454368e-09
4.434309e-09
4.4207527e-09
4.3263889e-09
4.4220743e-09
4.4636475e-09
4.6125078e-09
4.7552035e-09
4.9693002e-09
5.2203793e-09
5.5389578e-09
5.9182138e-09
6.3555365e-09
6.8203678e-09
7.2714197e-09
7.666056e-09
7.9749174e-09
8.167496e-09
8.2440291e-09
8.2440582e-09
8.1915084e-09