/*--------------------------------*- C++ -*----------------------------------*\
  =========                 |
  \\      /  F ield         | OpenFOAM: The Open Source CFD Toolbox
   \\    /   O peration     | Website:  https://openfoam.org
    \\  /    A nd           | Version:  8
     \\/     M anipulation  |
\*---------------------------------------------------------------------------*/
FoamFile
{
    version     2.0;
    format      ascii;
    class       volScalarField;
    location    "0.250004";
    object      nuTilda;
}
// * * * * * * * * * * * * * * * * * * * * * * * * * * * * * * * * * * * * * //

dimensions      [0 2 -1 0 0 0 0];

internalField   nonuniform List<scalar> 
20000
(
0.0012866745
0.0031068588
0.0040807827
0.0043357583
0.0037362848
0.0017823637
0.0001886857
1.1488975e-05
1.0240511e-05
1.0189542e-05
1.0085048e-05
1.0083156e-05
1.0027248e-05
1.0031988e-05
1.0011603e-05
1.0016119e-05
1.0008725e-05
1.0008583e-05
1.0005256e-05
1.0004365e-05
1.000306e-05
1.0002505e-05
1.0002202e-05
1.0002163e-05
1.0002063e-05
1.0001896e-05
1.0001754e-05
1.0001681e-05
1.0001631e-05
1.0001535e-05
1.0001415e-05
1.0001375e-05
1.0001445e-05
1.0001473e-05
1.0001299e-05
1.0001111e-05
1.0000993e-05
1.0000961e-05
1.0000956e-05
1.000088e-05
1.0000749e-05
1.0000708e-05
1.0000637e-05
1.0000616e-05
1.0000689e-05
1.0000741e-05
1.0001218e-05
1.0002102e-05
1.0003106e-05
1.0002002e-05
0.0012860164
0.0030712841
0.0039874523
0.0041837629
0.0035330449
0.0015253998
0.00013368234
1.1011369e-05
1.0234791e-05
1.0187158e-05
1.0083748e-05
1.0082692e-05
1.0026737e-05
1.0031797e-05
1.0011379e-05
1.0016055e-05
1.0008603e-05
1.0008485e-05
1.0005205e-05
1.0004327e-05
1.0003029e-05
1.0002464e-05
1.000214e-05
1.0002091e-05
1.000198e-05
1.00018e-05
1.0001653e-05
1.0001584e-05
1.0001549e-05
1.0001473e-05
1.0001371e-05
1.0001342e-05
1.0001418e-05
1.0001452e-05
1.0001292e-05
1.0001104e-05
1.0000979e-05
1.0000943e-05
1.0000924e-05
1.0000854e-05
1.0000727e-05
1.0000689e-05
1.0000622e-05
1.0000601e-05
1.0000685e-05
1.0000775e-05
1.0001237e-05
1.0002081e-05
1.0003034e-05
1.0002015e-05
0.0012759169
0.0030241871
0.0038955392
0.0040382739
0.0033427559
0.0013027797
9.6251247e-05
1.0766807e-05
1.022963e-05
1.018468e-05
1.0082489e-05
1.0082245e-05
1.0026282e-05
1.003153e-05
1.0011136e-05
1.0015853e-05
1.0008465e-05
1.0008385e-05
1.0005145e-05
1.0004296e-05
1.0003018e-05
1.0002471e-05
1.0002147e-05
1.0002094e-05
1.0001987e-05
1.0001809e-05
1.0001662e-05
1.0001589e-05
1.0001552e-05
1.0001477e-05
1.000137e-05
1.0001335e-05
1.0001416e-05
1.0001454e-05
1.0001294e-05
1.0001106e-05
1.0000979e-05
1.0000942e-05
1.0000922e-05
1.0000846e-05
1.0000722e-05
1.0000689e-05
1.0000625e-05
1.0000598e-05
1.000069e-05
1.0000809e-05
1.0001243e-05
1.000207e-05
1.000297e-05
1.0002018e-05
0.0012666329
0.0029802389
0.00381083
0.0038997515
0.0031554791
0.0011050105
6.97287e-05
1.06336e-05
1.0224674e-05
1.0182261e-05
1.008121e-05
1.0081743e-05
1.002581e-05
1.0031241e-05
1.0010907e-05
1.0015676e-05
1.0008331e-05
1.0008265e-05
1.0005079e-05
1.0004245e-05
1.0002988e-05
1.0002448e-05
1.0002126e-05
1.0002084e-05
1.0001983e-05
1.0001804e-05
1.0001654e-05
1.000158e-05
1.0001544e-05
1.0001473e-05
1.0001368e-05
1.0001327e-05
1.0001403e-05
1.0001445e-05
1.0001291e-05
1.0001103e-05
1.0000973e-05
1.0000935e-05
1.0000912e-05
1.0000834e-05
1.0000712e-05
1.0000682e-05
1.0000624e-05
1.0000597e-05
1.0000696e-05
1.0000854e-05
1.000124e-05
1.0002054e-05
1.0002881e-05
1.0002032e-05
0.0012573105
0.0029366069
0.0037250017
0.0037704411
0.002967518
0.00092779454
5.0696528e-05
1.055798e-05
1.0219831e-05
1.0179783e-05
1.0079882e-05
1.0081201e-05
1.0025336e-05
1.0030921e-05
1.0010687e-05
1.0015458e-05
1.0008195e-05
1.0008139e-05
1.000501e-05
1.0004195e-05
1.0002962e-05
1.0002436e-05
1.0002115e-05
1.0002084e-05
1.0001986e-05
1.0001807e-05
1.0001657e-05
1.0001582e-05
1.0001545e-05
1.0001477e-05
1.000137e-05
1.0001322e-05
1.0001394e-05
1.0001439e-05
1.0001289e-05
1.0001102e-05
1.000097e-05
1.000093e-05
1.0000906e-05
1.0000826e-05
1.0000705e-05
1.0000678e-05
1.0000625e-05
1.0000597e-05
1.0000699e-05
1.0000888e-05
1.0001227e-05
1.0002039e-05
1.0002794e-05
1.0002051e-05
0.0012488324
0.0028939887
0.0036404448
0.0036384847
0.0027769862
0.00077100458
3.7305628e-05
1.0513333e-05
1.0215092e-05
1.0177196e-05
1.0078462e-05
1.0080553e-05
1.0024882e-05
1.0030554e-05
1.0010482e-05
1.0015238e-05
1.0008061e-05
1.0008007e-05
1.0004942e-05
1.0004144e-05
1.0002938e-05
1.0002424e-05
1.0002105e-05
1.0002083e-05
1.0001985e-05
1.0001807e-05
1.0001658e-05
1.000158e-05
1.0001543e-05
1.0001477e-05
1.0001371e-05
1.0001318e-05
1.0001385e-05
1.0001432e-05
1.0001287e-05
1.00011e-05
1.0000965e-05
1.0000923e-05
1.0000899e-05
1.0000819e-05
1.0000698e-05
1.0000673e-05
1.0000625e-05
1.0000597e-05
1.00007e-05
1.0000911e-05
1.0001212e-05
1.0002022e-05
1.0002703e-05
1.0002067e-05
0.0012410608
0.002852798
0.0035581852
0.0035105928
0.0025826766
0.00063694414
2.8040852e-05
1.0485009e-05
1.0210745e-05
1.0174379e-05
1.0076874e-05
1.0078731e-05
1.0024668e-05
1.0030144e-05
1.0010295e-05
1.0015001e-05
1.0007933e-05
1.0007874e-05
1.0004877e-05
1.0004094e-05
1.0002916e-05
1.0002415e-05
1.0002098e-05
1.0002081e-05
1.0001984e-05
1.0001808e-05
1.0001659e-05
1.000158e-05
1.0001543e-05
1.000148e-05
1.0001372e-05
1.0001314e-05
1.0001376e-05
1.0001426e-05
1.0001284e-05
1.0001099e-05
1.0000961e-05
1.0000916e-05
1.0000892e-05
1.0000813e-05
1.000069e-05
1.0000668e-05
1.0000625e-05
1.0000597e-05
1.0000702e-05
1.0000931e-05
1.0001201e-05
1.0002002e-05
1.0002613e-05
1.0002073e-05
0.0012335439
0.0028112915
0.0034762993
0.0033837824
0.002384227
0.00051868815
2.1688828e-05
1.0466931e-05
1.0209841e-05
1.0171264e-05
1.0073232e-05
1.0074875e-05
1.0024428e-05
1.0029712e-05
1.0010128e-05
1.0014763e-05
1.0007812e-05
1.000774e-05
1.0004814e-05
1.0004043e-05
1.0002894e-05
1.0002404e-05
1.0002091e-05
1.0002078e-05
1.0001983e-05
1.0001808e-05
1.000166e-05
1.000158e-05
1.0001542e-05
1.0001481e-05
1.0001373e-05
1.0001312e-05
1.0001367e-05
1.0001419e-05
1.0001282e-05
1.0001097e-05
1.0000956e-05
1.0000909e-05
1.0000885e-05
1.0000806e-05
1.0000683e-05
1.0000662e-05
1.0000625e-05
1.0000598e-05
1.0000706e-05
1.0000951e-05
1.0001201e-05
1.0001981e-05
1.0002525e-05
1.0002071e-05
0.0012255441
0.0027697989
0.0033943536
0.0032560701
0.0021816863
0.00041538401
1.7441254e-05
1.0455819e-05
1.0206723e-05
1.0167826e-05
1.0068793e-05
1.0069544e-05
1.0024067e-05
1.0029257e-05
1.0009979e-05
1.0014512e-05
1.0007697e-05
1.0007603e-05
1.0004751e-05
1.000399e-05
1.0002871e-05
1.0002394e-05
1.0002085e-05
1.0002075e-05
1.0001981e-05
1.0001808e-05
1.0001661e-05
1.000158e-05
1.0001542e-05
1.0001482e-05
1.0001374e-05
1.0001309e-05
1.0001358e-05
1.0001412e-05
1.0001278e-05
1.0001095e-05
1.0000951e-05
1.0000901e-05
1.0000876e-05
1.00008e-05
1.0000676e-05
1.0000656e-05
1.0000624e-05
1.0000599e-05
1.0000711e-05
1.0000971e-05
1.0001205e-05
1.0001958e-05
1.0002453e-05
1.0002071e-05
0.0012174915
0.0027284851
0.0033114595
0.0031239938
0.001978021
0.00032713606
1.469645e-05
1.0449158e-05
1.0205949e-05
1.0163961e-05
1.0067029e-05
1.0065226e-05
1.0023453e-05
1.0028776e-05
1.0009846e-05
1.0014257e-05
1.0007585e-05
1.0007464e-05
1.0004688e-05
1.0003937e-05
1.0002848e-05
1.0002383e-05
1.0002078e-05
1.0002072e-05
1.0001979e-05
1.0001807e-05
1.0001661e-05
1.000158e-05
1.0001541e-05
1.0001482e-05
1.0001374e-05
1.0001307e-05
1.000135e-05
1.0001405e-05
1.0001274e-05
1.0001093e-05
1.0000947e-05
1.0000892e-05
1.0000866e-05
1.0000793e-05
1.0000669e-05
1.0000651e-05
1.0000623e-05
1.00006e-05
1.0000717e-05
1.0000989e-05
1.0001211e-05
1.0001931e-05
1.0002414e-05
1.000207e-05
0.0012096079
0.0026879939
0.0032282997
0.002995599
0.0017758474
0.00025329253
1.2980219e-05
1.0439093e-05
1.0202574e-05
1.016094e-05
1.0066236e-05
1.0064512e-05
1.0023025e-05
1.0028261e-05
1.0009728e-05
1.0013992e-05
1.0007478e-05
1.000732e-05
1.0004626e-05
1.0003882e-05
1.0002825e-05
1.0002372e-05
1.0002073e-05
1.0002069e-05
1.0001977e-05
1.0001807e-05
1.0001661e-05
1.0001579e-05
1.000154e-05
1.0001482e-05
1.0001374e-05
1.0001304e-05
1.0001342e-05
1.0001397e-05
1.000127e-05
1.0001091e-05
1.0000943e-05
1.0000883e-05
1.0000855e-05
1.0000785e-05
1.0000662e-05
1.0000646e-05
1.0000621e-05
1.0000601e-05
1.0000722e-05
1.0001002e-05
1.0001221e-05
1.0001896e-05
1.0002375e-05
1.0002072e-05
0.0012018644
0.0026486343
0.0031472975
0.0028686491
0.0015773799
0.00019305695
1.1938561e-05
1.04275e-05
1.0197595e-05
1.0157509e-05
1.0064662e-05
1.0063188e-05
1.0022514e-05
1.0027724e-05
1.0009625e-05
1.0013722e-05
1.0007374e-05
1.000717e-05
1.0004564e-05
1.0003827e-05
1.0002803e-05
1.0002361e-05
1.0002068e-05
1.0002065e-05
1.0001975e-05
1.0001806e-05
1.0001661e-05
1.0001578e-05
1.0001539e-05
1.0001482e-05
1.0001374e-05
1.0001301e-05
1.0001333e-05
1.000139e-05
1.0001265e-05
1.0001089e-05
1.0000939e-05
1.0000875e-05
1.0000844e-05
1.0000778e-05
1.0000656e-05
1.000064e-05
1.0000618e-05
1.0000603e-05
1.0000724e-05
1.0001011e-05
1.0001233e-05
1.0001856e-05
1.0002339e-05
1.0002076e-05
0.0011942097
0.0026101654
0.0030690815
0.0027409276
0.0013843035
0.00014451416
1.1318537e-05
1.041605e-05
1.0192703e-05
1.0154061e-05
1.0063075e-05
1.0061834e-05
1.0022017e-05
1.0027163e-05
1.0009537e-05
1.0013444e-05
1.0007274e-05
1.000702e-05
1.0004504e-05
1.0003771e-05
1.000278e-05
1.000235e-05
1.0002063e-05
1.0002061e-05
1.0001972e-05
1.0001805e-05
1.000166e-05
1.0001576e-05
1.0001537e-05
1.0001481e-05
1.0001373e-05
1.0001299e-05
1.0001325e-05
1.0001382e-05
1.000126e-05
1.0001085e-05
1.0000936e-05
1.0000868e-05
1.0000833e-05
1.0000769e-05
1.0000649e-05
1.0000634e-05
1.0000614e-05
1.0000604e-05
1.0000724e-05
1.0001022e-05
1.0001241e-05
1.0001814e-05
1.0002302e-05
1.0002083e-05
0.0011866559
0.0025713665
0.0029899819
0.0026106144
0.0011995094
0.00010647498
1.0958462e-05
1.0405215e-05
1.0187809e-05
1.0150509e-05
1.0061478e-05
1.0060422e-05
1.0021515e-05
1.0026582e-05
1.0009462e-05
1.0013163e-05
1.0007178e-05
1.0006868e-05
1.0004444e-05
1.0003715e-05
1.0002758e-05
1.0002339e-05
1.0002059e-05
1.0002057e-05
1.000197e-05
1.0001804e-05
1.000166e-05
1.0001575e-05
1.0001535e-05
1.0001479e-05
1.0001373e-05
1.0001296e-05
1.0001318e-05
1.0001375e-05
1.0001254e-05
1.0001082e-05
1.0000932e-05
1.0000862e-05
1.0000822e-05
1.000076e-05
1.0000643e-05
1.0000627e-05
1.000061e-05
1.0000606e-05
1.0000723e-05
1.0001035e-05
1.0001248e-05
1.000178e-05
1.0002265e-05
1.000209e-05
0.0011791078
0.0025326068
0.0029103681
0.0024763976
0.0010251195
7.7391157e-05
1.0752088e-05
1.0395476e-05
1.0182897e-05
1.0146875e-05
1.005987e-05
1.0058972e-05
1.0021014e-05
1.0025981e-05
1.0009402e-05
1.0012876e-05
1.0007085e-05
1.0006716e-05
1.0004385e-05
1.000366e-05
1.0002736e-05
1.0002329e-05
1.0002056e-05
1.0002053e-05
1.0001967e-05
1.0001803e-05
1.0001659e-05
1.0001573e-05
1.0001532e-05
1.0001478e-05
1.0001372e-05
1.0001293e-05
1.000131e-05
1.0001367e-05
1.0001248e-05
1.0001077e-05
1.0000929e-05
1.0000856e-05
1.0000811e-05
1.0000745e-05
1.0000636e-05
1.000062e-05
1.0000606e-05
1.0000607e-05
1.0000719e-05
1.0001045e-05
1.0001259e-05
1.0001761e-05
1.0002224e-05
1.0002097e-05
0.0011715525
0.002494006
0.0028300932
0.0023399015
0.00086350875
5.5837272e-05
1.0634024e-05
1.0385422e-05
1.0177977e-05
1.0143163e-05
1.0058254e-05
1.0057486e-05
1.0020515e-05
1.0025363e-05
1.0009365e-05
1.0012587e-05
1.0006995e-05
1.0006565e-05
1.0004327e-05
1.0003605e-05
1.0002714e-05
1.0002318e-05
1.0002053e-05
1.0002049e-05
1.0001964e-05
1.0001802e-05
1.0001657e-05
1.000157e-05
1.0001529e-05
1.0001476e-05
1.0001372e-05
1.000129e-05
1.0001303e-05
1.0001359e-05
1.0001242e-05
1.0001072e-05
1.0000924e-05
1.0000851e-05
1.0000802e-05
1.000072e-05
1.0000629e-05
1.0000613e-05
1.0000603e-05
1.0000607e-05
1.0000715e-05
1.0001055e-05
1.0001269e-05
1.0001741e-05
1.0002168e-05
1.0002105e-05
0.0011641054
0.0024560294
0.0027490776
0.0021991813
0.00071631474
4.0416726e-05
1.0565308e-05
1.0375433e-05
1.0173061e-05
1.0139393e-05
1.0056636e-05
1.0055972e-05
1.0020019e-05
1.0024731e-05
1.000932e-05
1.0012292e-05
1.0006908e-05
1.0006415e-05
1.0004269e-05
1.000355e-05
1.0002693e-05
1.0002308e-05
1.0002051e-05
1.0002044e-05
1.000196e-05
1.00018e-05
1.0001656e-05
1.0001568e-05
1.0001526e-05
1.0001474e-05
1.0001371e-05
1.0001287e-05
1.0001296e-05
1.0001352e-05
1.0001235e-05
1.0001067e-05
1.0000919e-05
1.0000845e-05
1.0000794e-05
1.000071e-05
1.0000622e-05
1.0000607e-05
1.00006e-05
1.0000606e-05
1.0000715e-05
1.000107e-05
1.000128e-05
1.0001723e-05
1.0002104e-05
1.0002108e-05
0.0011569712
0.0024193346
0.0026689926
0.0020520333
0.00058524238
2.9788578e-05
1.0523675e-05
1.0365409e-05
1.0168149e-05
1.0135565e-05
1.0055018e-05
1.0054434e-05
1.0019529e-05
1.0024088e-05
1.0009279e-05
1.0011998e-05
1.0006822e-05
1.0006268e-05
1.0004213e-05
1.0003496e-05
1.0002672e-05
1.0002298e-05
1.0002049e-05
1.000204e-05
1.0001957e-05
1.0001798e-05
1.0001654e-05
1.0001565e-05
1.0001522e-05
1.0001471e-05
1.000137e-05
1.0001284e-05
1.0001289e-05
1.0001344e-05
1.0001228e-05
1.0001061e-05
1.0000913e-05
1.0000838e-05
1.0000787e-05
1.0000702e-05
1.0000615e-05
1.0000601e-05
1.0000599e-05
1.0000604e-05
1.0000716e-05
1.000109e-05
1.0001269e-05
1.0001708e-05
1.0002043e-05
1.0002101e-05
0.0011500773
0.0023836423
0.0025975304
0.0018982005
0.00047417895
2.2814319e-05
1.0496445e-05
1.0355408e-05
1.0163255e-05
1.01317e-05
1.0053406e-05
1.005288e-05
1.0019045e-05
1.0023437e-05
1.0009244e-05
1.0011701e-05
1.0006739e-05
1.0006124e-05
1.0004158e-05
1.0003443e-05
1.0002652e-05
1.0002288e-05
1.0002047e-05
1.0002035e-05
1.0001954e-05
1.0001796e-05
1.0001652e-05
1.0001561e-05
1.0001518e-05
1.0001468e-05
1.0001369e-05
1.0001281e-05
1.0001282e-05
1.0001336e-05
1.0001221e-05
1.0001054e-05
1.0000906e-05
1.000083e-05
1.0000778e-05
1.0000693e-05
1.0000608e-05
1.0000597e-05
1.0000598e-05
1.0000602e-05
1.0000714e-05
1.0001104e-05
1.0001239e-05
1.0001697e-05
1.0001986e-05
1.0002088e-05
0.0011431937
0.0023469698
0.0025209264
0.0017367587
0.00037891295
1.8270866e-05
1.0476353e-05
1.034541e-05
1.0158382e-05
1.0127798e-05
1.0051801e-05
1.005131e-05
1.0018571e-05
1.002278e-05
1.0009216e-05
1.0011406e-05
1.0006657e-05
1.0005989e-05
1.0004104e-05
1.0003391e-05
1.0002633e-05
1.0002279e-05
1.0002046e-05
1.000203e-05
1.000195e-05
1.0001794e-05
1.0001649e-05
1.0001558e-05
1.0001514e-05
1.0001465e-05
1.0001368e-05
1.0001278e-05
1.0001275e-05
1.0001328e-05
1.0001213e-05
1.0001048e-05
1.0000898e-05
1.0000822e-05
1.000077e-05
1.0000684e-05
1.0000601e-05
1.0000593e-05
1.0000598e-05
1.0000602e-05
1.0000707e-05
1.0001089e-05
1.0001216e-05
1.000169e-05
1.0001936e-05
1.0002059e-05
0.0011365774
0.0023104331
0.0024460042
0.0015704921
0.00029795677
1.5344749e-05
1.046018e-05
1.0335421e-05
1.0153535e-05
1.0123875e-05
1.0050208e-05
1.0049732e-05
1.0018107e-05
1.002212e-05
1.0009194e-05
1.0011113e-05
1.0006577e-05
1.0005856e-05
1.000405e-05
1.0003341e-05
1.0002614e-05
1.000227e-05
1.0002045e-05
1.0002025e-05
1.0001947e-05
1.0001792e-05
1.0001646e-05
1.0001554e-05
1.0001509e-05
1.0001462e-05
1.0001367e-05
1.0001275e-05
1.0001268e-05
1.000132e-05
1.0001205e-05
1.0001042e-05
1.0000891e-05
1.0000813e-05
1.0000761e-05
1.0000677e-05
1.0000595e-05
1.0000588e-05
1.0000598e-05
1.0000603e-05
1.0000699e-05
1.0001075e-05
1.0001224e-05
1.0001686e-05
1.0001889e-05
1.0002018e-05
0.0011301934
0.0022733445
0.002369831
0.0014028581
0.00023109572
1.3514126e-05
1.0446124e-05
1.0325458e-05
1.0148723e-05
1.0119942e-05
1.0048631e-05
1.0048151e-05
1.0017654e-05
1.002146e-05
1.0009184e-05
1.0010822e-05
1.0006498e-05
1.0005726e-05
1.0003997e-05
1.0003292e-05
1.0002595e-05
1.0002261e-05
1.0002044e-05
1.0002021e-05
1.0001943e-05
1.0001789e-05
1.0001643e-05
1.0001549e-05
1.0001504e-05
1.0001458e-05
1.0001366e-05
1.0001271e-05
1.0001261e-05
1.0001312e-05
1.0001197e-05
1.0001036e-05
1.0000885e-05
1.0000804e-05
1.0000753e-05
1.0000671e-05
1.0000588e-05
1.0000583e-05
1.0000599e-05
1.0000605e-05
1.0000696e-05
1.0001059e-05
1.0001245e-05
1.0001683e-05
1.0001845e-05
1.0001972e-05
0.0011241474
0.0022355548
0.0022928541
0.0012450198
0.00017711349
1.2392791e-05
1.0433191e-05
1.0315517e-05
1.014395e-05
1.0116004e-05
1.0047072e-05
1.0046572e-05
1.0017215e-05
1.0020802e-05
1.0009176e-05
1.0010535e-05
1.0006421e-05
1.0005598e-05
1.0003945e-05
1.0003244e-05
1.0002577e-05
1.0002252e-05
1.0002044e-05
1.0002017e-05
1.0001939e-05
1.0001786e-05
1.000164e-05
1.0001545e-05
1.0001499e-05
1.0001455e-05
1.0001365e-05
1.0001268e-05
1.0001254e-05
1.0001304e-05
1.0001189e-05
1.0001029e-05
1.0000879e-05
1.0000795e-05
1.0000746e-05
1.0000667e-05
1.0000582e-05
1.0000579e-05
1.0000601e-05
1.0000611e-05
1.0000699e-05
1.0001046e-05
1.0001264e-05
1.0001683e-05
1.0001805e-05
1.0001922e-05
0.0011180299
0.0021950563
0.0022130252
0.0010961282
0.00013422957
1.171665e-05
1.0420842e-05
1.030564e-05
1.0139227e-05
1.0112083e-05
1.0045535e-05
1.0045002e-05
1.0016791e-05
1.002015e-05
1.0009165e-05
1.0010251e-05
1.0006343e-05
1.0005474e-05
1.0003893e-05
1.0003198e-05
1.000256e-05
1.0002244e-05
1.0002042e-05
1.0002013e-05
1.0001935e-05
1.0001783e-05
1.0001637e-05
1.000154e-05
1.0001494e-05
1.0001451e-05
1.0001364e-05
1.0001266e-05
1.0001247e-05
1.0001295e-05
1.000118e-05
1.0001023e-05
1.0000874e-05
1.0000788e-05
1.0000739e-05
1.0000664e-05
1.0000575e-05
1.0000577e-05
1.0000602e-05
1.0000621e-05
1.0000705e-05
1.0001025e-05
1.0001282e-05
1.0001684e-05
1.000177e-05
1.0001868e-05
0.0011116765
0.0021506854
0.0021293354
0.00095675456
0.00010064988
1.1312248e-05
1.0408797e-05
1.0295789e-05
1.0134548e-05
1.010817e-05
1.0044023e-05
1.0043439e-05
1.0016383e-05
1.0019504e-05
1.0009153e-05
1.0009973e-05
1.0006266e-05
1.0005353e-05
1.0003843e-05
1.0003154e-05
1.0002543e-05
1.0002236e-05
1.0002041e-05
1.0002008e-05
1.0001931e-05
1.000178e-05
1.0001633e-05
1.0001535e-05
1.0001488e-05
1.0001446e-05
1.0001362e-05
1.0001263e-05
1.0001241e-05
1.0001287e-05
1.0001171e-05
1.0001016e-05
1.0000869e-05
1.0000782e-05
1.0000732e-05
1.000066e-05
1.0000567e-05
1.0000576e-05
1.0000602e-05
1.0000632e-05
1.0000711e-05
1.0000989e-05
1.00013e-05
1.0001686e-05
1.000174e-05
1.0001812e-05
0.0011049256
0.002102522
0.0020407143
0.00082782463
7.4970407e-05
1.1070922e-05
1.0396973e-05
1.0286015e-05
1.0129923e-05
1.0104284e-05
1.0042538e-05
1.0041893e-05
1.0015993e-05
1.001887e-05
1.0009139e-05
1.0009701e-05
1.0006189e-05
1.0005236e-05
1.0003793e-05
1.0003111e-05
1.0002527e-05
1.0002227e-05
1.000204e-05
1.0002004e-05
1.0001927e-05
1.0001777e-05
1.0001629e-05
1.0001529e-05
1.0001482e-05
1.0001442e-05
1.0001361e-05
1.000126e-05
1.0001234e-05
1.0001279e-05
1.0001162e-05
1.0001009e-05
1.0000865e-05
1.0000777e-05
1.0000724e-05
1.0000655e-05
1.0000561e-05
1.0000572e-05
1.0000602e-05
1.0000636e-05
1.0000724e-05
1.0000951e-05
1.0001322e-05
1.0001689e-05
1.0001711e-05
1.0001754e-05
0.0010975594
0.0020498695
0.001944183
0.00071038703
5.5759751e-05
1.0924803e-05
1.0385362e-05
1.0276306e-05
1.0125351e-05
1.0100428e-05
1.0041085e-05
1.0040368e-05
1.0015621e-05
1.0018248e-05
1.0009122e-05
1.0009436e-05
1.0006112e-05
1.0005123e-05
1.0003744e-05
1.000307e-05
1.000251e-05
1.0002219e-05
1.0002039e-05
1.0002e-05
1.0001923e-05
1.0001773e-05
1.0001625e-05
1.0001523e-05
1.0001476e-05
1.0001438e-05
1.0001359e-05
1.0001258e-05
1.0001228e-05
1.000127e-05
1.0001152e-05
1.0001002e-05
1.000086e-05
1.0000773e-05
1.0000716e-05
1.0000648e-05
1.0000552e-05
1.0000567e-05
1.0000603e-05
1.0000633e-05
1.000074e-05
1.0000938e-05
1.0001344e-05
1.0001694e-05
1.0001684e-05
1.0001694e-05
0.0010896697
0.0019929091
0.001835
0.00060658589
4.1680705e-05
1.0833183e-05
1.0373931e-05
1.0266665e-05
1.0120835e-05
1.0096612e-05
1.0039664e-05
1.0038865e-05
1.0015269e-05
1.001764e-05
1.0009101e-05
1.0009178e-05
1.0006035e-05
1.0005015e-05
1.0003696e-05
1.0003031e-05
1.0002494e-05
1.0002211e-05
1.0002037e-05
1.0001997e-05
1.0001919e-05
1.0001769e-05
1.000162e-05
1.0001517e-05
1.0001469e-05
1.0001433e-05
1.0001358e-05
1.0001257e-05
1.0001223e-05
1.0001262e-05
1.0001141e-05
1.0000994e-05
1.0000854e-05
1.0000769e-05
1.0000709e-05
1.000064e-05
1.0000542e-05
1.0000561e-05
1.0000606e-05
1.0000633e-05
1.0000752e-05
1.0000955e-05
1.0001356e-05
1.00017e-05
1.0001661e-05
1.0001632e-05
0.0010814707
0.0019331762
0.0017166995
0.00051448391
3.1566636e-05
1.0772589e-05
1.0362642e-05
1.0257103e-05
1.011638e-05
1.0092847e-05
1.003828e-05
1.0037391e-05
1.0014939e-05
1.001705e-05
1.0009076e-05
1.0008926e-05
1.0005959e-05
1.000491e-05
1.0003648e-05
1.0002993e-05
1.0002478e-05
1.0002203e-05
1.0002035e-05
1.0001993e-05
1.0001915e-05
1.0001765e-05
1.0001615e-05
1.0001511e-05
1.0001463e-05
1.0001428e-05
1.0001356e-05
1.0001255e-05
1.0001217e-05
1.0001255e-05
1.000113e-05
1.0000986e-05
1.0000848e-05
1.0000765e-05
1.0000704e-05
1.0000633e-05
1.0000533e-05
1.0000556e-05
1.0000612e-05
1.0000641e-05
1.0000735e-05
1.0000964e-05
1.0001366e-05
1.0001703e-05
1.0001648e-05
1.0001567e-05
0.0010731496
0.0018714006
0.0015899812
0.00042579406
2.4482903e-05
1.0729344e-05
1.0351425e-05
1.0247603e-05
1.0111982e-05
1.0089132e-05
1.0036933e-05
1.0035949e-05
1.001463e-05
1.0016478e-05
1.0009044e-05
1.0008658e-05
1.0005885e-05
1.000481e-05
1.0003602e-05
1.0002957e-05
1.0002462e-05
1.0002194e-05
1.0002032e-05
1.0001989e-05
1.000191e-05
1.000176e-05
1.000161e-05
1.0001506e-05
1.0001457e-05
1.0001424e-05
1.0001355e-05
1.0001254e-05
1.0001213e-05
1.0001247e-05
1.0001119e-05
1.0000977e-05
1.0000841e-05
1.000076e-05
1.00007e-05
1.0000631e-05
1.0000523e-05
1.0000548e-05
1.0000614e-05
1.0000653e-05
1.0000712e-05
1.0000958e-05
1.0001374e-05
1.0001702e-05
1.0001644e-05
1.0001494e-05
0.0010647499
0.0018076874
0.0014592949
0.00035101392
1.9845571e-05
1.0695788e-05
1.0340239e-05
1.0238175e-05
1.0107647e-05
1.0085482e-05
1.0035627e-05
1.0034542e-05
1.0014345e-05
1.0015924e-05
1.0009007e-05
1.000839e-05
1.0005809e-05
1.0004714e-05
1.0003557e-05
1.0002922e-05
1.0002446e-05
1.0002186e-05
1.000203e-05
1.0001985e-05
1.0001905e-05
1.0001755e-05
1.0001605e-05
1.0001501e-05
1.0001452e-05
1.0001419e-05
1.0001353e-05
1.0001252e-05
1.0001208e-05
1.0001239e-05
1.0001108e-05
1.0000968e-05
1.0000833e-05
1.0000751e-05
1.0000696e-05
1.0000633e-05
1.0000517e-05
1.0000537e-05
1.0000605e-05
1.0000645e-05
1.0000682e-05
1.0000961e-05
1.0001379e-05
1.0001697e-05
1.0001644e-05
1.0001412e-05
0.0010561747
0.0017402596
0.0013355423
0.0002855863
1.6687657e-05
1.0667281e-05
1.032906e-05
1.0228837e-05
1.0103382e-05
1.0081905e-05
1.0034364e-05
1.0033175e-05
1.0014083e-05
1.0015392e-05
1.0008964e-05
1.0008159e-05
1.0005733e-05
1.0004623e-05
1.0003512e-05
1.0002887e-05
1.000243e-05
1.0002176e-05
1.0002027e-05
1.0001981e-05
1.00019e-05
1.000175e-05
1.0001601e-05
1.0001497e-05
1.0001446e-05
1.0001414e-05
1.0001351e-05
1.000125e-05
1.0001203e-05
1.0001232e-05
1.0001096e-05
1.0000959e-05
1.0000825e-05
1.0000741e-05
1.0000688e-05
1.0000635e-05
1.0000511e-05
1.0000527e-05
1.0000589e-05
1.0000626e-05
1.0000651e-05
1.0000979e-05
1.0001385e-05
1.0001687e-05
1.0001647e-05
1.0001326e-05
0.0010480046
0.0016690515
0.0012100931
0.00022929974
1.4598878e-05
1.0641518e-05
1.0317877e-05
1.0219599e-05
1.0099194e-05
1.0078411e-05
1.0033143e-05
1.0031849e-05
1.0013846e-05
1.0014882e-05
1.0008914e-05
1.0007956e-05
1.0005657e-05
1.0004536e-05
1.0003468e-05
1.0002854e-05
1.0002412e-05
1.0002167e-05
1.0002024e-05
1.0001977e-05
1.0001894e-05
1.0001746e-05
1.0001599e-05
1.0001493e-05
1.0001439e-05
1.0001408e-05
1.0001349e-05
1.0001247e-05
1.0001198e-05
1.0001224e-05
1.0001084e-05
1.000095e-05
1.0000817e-05
1.0000729e-05
1.0000676e-05
1.0000638e-05
1.0000505e-05
1.000052e-05
1.0000575e-05
1.0000622e-05
1.0000635e-05
1.0001001e-05
1.0001391e-05
1.0001672e-05
1.000165e-05
1.0001238e-05
0.001041186
0.0016050158
0.001087281
0.0001820012
1.3233364e-05
1.0617067e-05
1.0306678e-05
1.0210465e-05
1.0095087e-05
1.0075003e-05
1.0031967e-05
1.003055e-05
1.0013635e-05
1.0014395e-05
1.0008857e-05
1.0007759e-05
1.0005581e-05
1.0004453e-05
1.0003425e-05
1.0002821e-05
1.0002395e-05
1.0002157e-05
1.0002021e-05
1.0001972e-05
1.0001888e-05
1.0001744e-05
1.0001597e-05
1.0001488e-05
1.0001432e-05
1.0001402e-05
1.0001347e-05
1.0001245e-05
1.0001193e-05
1.0001217e-05
1.0001072e-05
1.0000941e-05
1.000081e-05
1.0000718e-05
1.0000661e-05
1.0000643e-05
1.00005e-05
1.0000514e-05
1.0000569e-05
1.0000601e-05
1.0000652e-05
1.0001006e-05
1.0001399e-05
1.0001652e-05
1.0001652e-05
1.000115e-05
0.0010347658
0.0015376875
0.00096746192
0.00014287642
1.2353995e-05
1.0593113e-05
1.0295456e-05
1.0201437e-05
1.0091063e-05
1.0071683e-05
1.003084e-05
1.0029286e-05
1.0013448e-05
1.0013932e-05
1.0008794e-05
1.0007574e-05
1.0005505e-05
1.0004373e-05
1.0003381e-05
1.0002787e-05
1.0002376e-05
1.0002147e-05
1.0002018e-05
1.0001966e-05
1.0001883e-05
1.0001742e-05
1.0001595e-05
1.0001482e-05
1.0001424e-05
1.0001396e-05
1.0001345e-05
1.0001242e-05
1.0001187e-05
1.0001209e-05
1.000106e-05
1.0000932e-05
1.0000804e-05
1.000071e-05
1.000065e-05
1.0000648e-05
1.0000496e-05
1.0000506e-05
1.0000564e-05
1.0000591e-05
1.0000662e-05
1.0001021e-05
1.000141e-05
1.0001631e-05
1.0001651e-05
1.0001061e-05
0.0010288786
0.0014683028
0.00085316594
0.00011119135
1.1793802e-05
1.0569416e-05
1.0284226e-05
1.0192534e-05
1.008713e-05
1.0068461e-05
1.0029765e-05
1.0028072e-05
1.0013288e-05
1.0013493e-05
1.0008725e-05
1.0007399e-05
1.000543e-05
1.0004297e-05
1.0003338e-05
1.0002754e-05
1.0002357e-05
1.0002136e-05
1.0002016e-05
1.0001961e-05
1.0001879e-05
1.0001741e-05
1.0001592e-05
1.0001475e-05
1.0001416e-05
1.000139e-05
1.0001343e-05
1.0001239e-05
1.0001181e-05
1.0001202e-05
1.0001048e-05
1.0000923e-05
1.0000799e-05
1.0000705e-05
1.0000639e-05
1.000065e-05
1.0000493e-05
1.0000498e-05
1.0000545e-05
1.000057e-05
1.0000672e-05
1.0001053e-05
1.0001422e-05
1.0001607e-05
1.0001642e-05
1.0000971e-05
0.0010236116
0.0013962513
0.00074592843
8.6053631e-05
1.1437446e-05
1.0546228e-05
1.0273018e-05
1.0183777e-05
1.0083298e-05
1.0065346e-05
1.0028746e-05
1.002691e-05
1.0013155e-05
1.0013078e-05
1.000865e-05
1.0007234e-05
1.0005355e-05
1.0004224e-05
1.0003293e-05
1.000272e-05
1.0002337e-05
1.0002126e-05
1.0002015e-05
1.0001956e-05
1.0001877e-05
1.0001741e-05
1.0001587e-05
1.0001467e-05
1.0001407e-05
1.0001383e-05
1.0001341e-05
1.0001236e-05
1.0001174e-05
1.0001194e-05
1.0001036e-05
1.0000914e-05
1.0000794e-05
1.0000703e-05
1.0000632e-05
1.0000623e-05
1.0000488e-05
1.0000491e-05
1.0000518e-05
1.000055e-05
1.0000676e-05
1.0001076e-05
1.0001435e-05
1.0001577e-05
1.000162e-05
1.0000886e-05
0.001019441
0.0013229082
0.00064700451
6.6467423e-05
1.1208049e-05
1.0524286e-05
1.0261844e-05
1.0175176e-05
1.0079574e-05
1.0062339e-05
1.0027785e-05
1.0025801e-05
1.0013046e-05
1.0012681e-05
1.0008572e-05
1.0007078e-05
1.000528e-05
1.0004153e-05
1.0003249e-05
1.0002685e-05
1.0002316e-05
1.0002115e-05
1.0002014e-05
1.0001953e-05
1.0001876e-05
1.0001738e-05
1.000158e-05
1.0001459e-05
1.0001399e-05
1.0001376e-05
1.0001339e-05
1.0001233e-05
1.0001167e-05
1.0001186e-05
1.0001024e-05
1.0000905e-05
1.0000788e-05
1.0000702e-05
1.0000624e-05
1.0000591e-05
1.0000481e-05
1.000048e-05
1.0000504e-05
1.0000526e-05
1.0000683e-05
1.0001092e-05
1.0001447e-05
1.0001548e-05
1.0001584e-05
1.0000816e-05
0.0010168073
0.0012539437
0.00055686049
5.1434742e-05
1.1056574e-05
1.0503193e-05
1.0250672e-05
1.0166735e-05
1.0075961e-05
1.0059439e-05
1.0026882e-05
1.0024745e-05
1.0012966e-05
1.0012247e-05
1.0008491e-05
1.0006933e-05
1.0005206e-05
1.0004084e-05
1.0003202e-05
1.000265e-05
1.0002294e-05
1.0002105e-05
1.0002012e-05
1.0001952e-05
1.0001875e-05
1.0001733e-05
1.0001573e-05
1.0001452e-05
1.000139e-05
1.0001369e-05
1.0001337e-05
1.0001229e-05
1.0001159e-05
1.0001178e-05
1.0001011e-05
1.0000896e-05
1.0000782e-05
1.0000699e-05
1.0000621e-05
1.0000569e-05
1.0000471e-05
1.0000466e-05
1.0000491e-05
1.000052e-05
1.0000699e-05
1.0001106e-05
1.0001454e-05
1.0001539e-05
1.0001543e-05
1.0000757e-05
0.0010141634
0.0011739465
0.0004755351
4.0122574e-05
1.0952765e-05
1.0481959e-05
1.0239504e-05
1.0158468e-05
1.0072466e-05
1.0056652e-05
1.002604e-05
1.0023745e-05
1.0012918e-05
1.0011867e-05
1.0008406e-05
1.0006795e-05
1.0005131e-05
1.0004015e-05
1.0003155e-05
1.0002613e-05
1.0002273e-05
1.0002095e-05
1.0002009e-05
1.0001953e-05
1.0001873e-05
1.0001725e-05
1.0001566e-05
1.0001444e-05
1.0001382e-05
1.0001361e-05
1.0001334e-05
1.0001225e-05
1.000115e-05
1.0001169e-05
1.0000999e-05
1.0000887e-05
1.0000775e-05
1.0000694e-05
1.0000615e-05
1.0000547e-05
1.0000463e-05
1.0000448e-05
1.0000483e-05
1.0000494e-05
1.0000702e-05
1.0001116e-05
1.0001452e-05
1.0001522e-05
1.0001501e-05
1.0000706e-05
0.0010118612
0.0010933134
0.00040425597
3.1783703e-05
1.0877664e-05
1.0460755e-05
1.0228393e-05
1.0150392e-05
1.0069097e-05
1.0053987e-05
1.0025263e-05
1.0022804e-05
1.00129e-05
1.0011562e-05
1.0008317e-05
1.0006666e-05
1.0005056e-05
1.0003947e-05
1.0003106e-05
1.0002576e-05
1.000225e-05
1.0002084e-05
1.0002003e-05
1.0001953e-05
1.0001866e-05
1.0001717e-05
1.0001559e-05
1.0001436e-05
1.0001373e-05
1.0001353e-05
1.0001331e-05
1.0001221e-05
1.0001141e-05
1.000116e-05
1.0000987e-05
1.0000878e-05
1.0000768e-05
1.0000685e-05
1.0000602e-05
1.0000526e-05
1.0000457e-05
1.0000418e-05
1.0000466e-05
1.0000494e-05
1.0000709e-05
1.000112e-05
1.0001443e-05
1.0001503e-05
1.000146e-05
1.0000661e-05
0.001009504
0.001007773
0.00034239315
2.5779371e-05
1.0818474e-05
1.0439532e-05
1.021737e-05
1.014252e-05
1.0065862e-05
1.0051446e-05
1.0024552e-05
1.0021932e-05
1.0012913e-05
1.0011276e-05
1.0008225e-05
1.0006544e-05
1.000498e-05
1.0003878e-05
1.0003054e-05
1.0002538e-05
1.0002227e-05
1.0002071e-05
1.0001994e-05
1.0001953e-05
1.0001856e-05
1.0001708e-05
1.0001552e-05
1.0001428e-05
1.0001365e-05
1.0001345e-05
1.0001328e-05
1.0001216e-05
1.0001131e-05
1.000115e-05
1.0000975e-05
1.000087e-05
1.0000761e-05
1.0000675e-05
1.0000585e-05
1.0000509e-05
1.0000451e-05
1.0000403e-05
1.0000448e-05
1.0000493e-05
1.0000718e-05
1.000112e-05
1.0001427e-05
1.0001484e-05
1.0001419e-05
1.0000619e-05
0.0010070919
0.00092610357
0.00028978936
2.1508649e-05
1.0768853e-05
1.041833e-05
1.0206472e-05
1.013487e-05
1.0062771e-05
1.0049031e-05
1.002391e-05
1.0021147e-05
1.0012933e-05
1.0011014e-05
1.000813e-05
1.0006427e-05
1.0004903e-05
1.0003807e-05
1.0003001e-05
1.0002499e-05