/*--------------------------------*- C++ -*----------------------------------*\
  =========                 |
  \\      /  F ield         | OpenFOAM: The Open Source CFD Toolbox
   \\    /   O peration     | Website:  https://openfoam.org
    \\  /    A nd           | Version:  8
     \\/     M anipulation  |
\*---------------------------------------------------------------------------*/
FoamFile
{
    version     2.0;
    format      ascii;
    class       volScalarField;
    location    "0.250004";
    object      p;
}
// * * * * * * * * * * * * * * * * * * * * * * * * * * * * * * * * * * * * * //

dimensions      [1 -1 -2 0 0 0 0];

internalField   nonuniform List<scalar> 
20000
(
64932.852
64946.037
64960.271
64979.435
65006.285
65040.553
65089.888
65144.686
65216.814
65304.273
65402.602
65539.421
65681.217
65888.425
66101.243
66411.179
66744.99
67215.703
67753.626
68473.721
69322.613
70419.125
71727.903
73326.138
75196.151
77348.775
79704.548
82214.104
84774.851
87256.947
89555.176
91602.092
93358.709
94822.362
96008.533
96953.428
97692.916
98267.852
98711.116
99057.548
99335.991
99559.718
99749.716
99925.99
100107.17
100254.97
100409.14
100497.51
100576.69
100256.42
64113.816
64127.835
64143.222
64163.76
64192.917
64229.82
64284.353
64343.848
64422.547
64518.86
64626.709
64775.896
64928.632
65151.905
65382.474
65720.374
66084.518
66594.811
67177.38
67953.201
68871.455
70034.782
71410.786
73074.931
75008.964
77225.614
79638.712
82190.652
84771.573
87284.271
89603.934
91657.675
93412.003
94868.036
96045.082
96980.751
97713.198
98282.948
98723.053
99068.217
99346.045
99569.374
99759.667
99938.425
100120.26
100268.51
100415.67
100513.18
100574.1
100243.03
63547.276
63562.401
63579.385
63602.443
63635.762
63676.965
63739.046
63804.943
63890.672
63995.797
64112.128
64272.523
64435.205
64675.235
64926.515
65295.031
65695.686
66252.338
66878.968
67699.568
68657.475
69858.942
71274.402
72973.175
74940.194
77189.022
79626.24
82215.543
84841.043
87376.814
89703.942
91752.52
93494.681
94935.392
96097.207
97019.167
97741.231
98303.426
98738.701
99081.478
99357.901
99580.253
99770.557
99951.715
100134.4
100283.27
100425.26
100520.07
100569.42
100230.82
63180.937
63196.99
63214.93
63239.383
63275.791
63319.645
63386.415
63456.611
63546.16
63656.395
63778.705
63952.164
64134.213
64404.149
64682.799
65082.076
65507.17
66091.372
66742.427
67589.77
68569.525
69791.682
71229.629
72944.127
74926.433
77199.227
79695.889
82335.542
84992.021
87537.868
89859.044
91890.441
93610.149
95027.33
96167.559
97071.074
97779.063
98330.968
98759.452
99098.42
99372.306
99592.776
99782.609
99965.857
100149.17
100299.59
100436.6
100522.6
100564.01
100221.83
62942.502
62960.033
62980.374
63007.697
63048.527
63096.638
63168.164
63244.405
63342.085
63464.063
63599.082
63790.222
63988.353
64277.168
64569.792
64986.933
65426.088
66025.388
66689.511
67553.117
68543.537
69775.885
71225.943
72975.338
75004.804
77326.891
79871.206
82547.785
85221.706
87762.951
90064.118
92066.447
93754.159
95140.474
96253.409
97134.232
97824.953
98364.244
98784.264
99118.224
99388.678
99606.562
99795.712
99980.941
100164.68
100318.97
100448.32
100523.24
100556.99
100214.05
62819.12
62836.826
62858.281
62886.797
62930.476
62981.526
63057.853
63139.864
63244.822
63376.395
63519.872
63722.585
63927.593
64226.083
64524.201
64952.002
65399.612
66006.132
66676.394
67549.239
68561.601
69829.163
71320.324
73113.81
75190.205
77559.054
80144.982
82847.138
85524.027
88047.334
90316.063
92278.553
93925.455
95274.029
96354.336
97208.457
97878.855
98403.287
98813.229
99140.99
99407.055
99621.629
99809.982
99997.051
100180.95
100339.49
100459.07
100522.89
100547.77
100206.62
62754.556
62772.509
62795.338
62826.081
62873.567
62928.029
63009.546
63096.479
63206.768
63345.025
63493.238
63702.667
63908.787
64211.327
64511.075
64944.705
65397.884
66022.833
66716.649
67620.575
68666.911
69972.343
71506.458
73347.041
75472.751
77887.189
80506.697
83223.387
85891.483
88384.823
90609.891
92522.891
94121.166
95425.907
96468.836
97292.654
97939.997
98447.561
98845.987
99166.468
99427.229
99637.88
99825.516
100014.34
100198.31
100358.49
100465.81
100517.94
100534.55
100198.03
62726.995
62748.064
62771.793
62804.067
62854.42
62910.536
62995.506
63084.805
63197.034
63338.642
63488.449
63702.202
63909.806
64222.281
64532.564
64985.459
65457.77
66107.853
66828.007
67764.003
68846.861
70193.875
71774.668
73664.324
75839.615
78297.389
80945.678
83668.205
86316.863
88769.553
90941.058
92796.054
94338.803
95594.325
96595.667
97385.968
98007.804
98496.695
98882.313
99194.515
99449.071
99655.288
99842.438
100032.98
100217.05
100373.48
100469.01
100511.55
100513.76
100187.09
62720.318
62743.373
62768.023
62802.058
62855.49
62913.943
63003.047
63096.852
63212.901
63360.659
63515.615
63739.314
63957.127
64285.477
64609.46
65082.594
65574.62
66250.868
66999.419
67969.683
69091.164
70481.512
72110.974
74052.334
76279.216
78779.629
81452.081
84172.713
86792.661
89195.23
91304.492
93094.123
94575.45
95777.163
96733.312
97487.318
98081.524
98550.185
98921.877
99224.899
99472.407
99673.825
99860.864
100053.26
100236.72
100384.17
100470.29
100508
100479.22
100172.41
62760.824
62785.749
62810.898
62846.447
62902.638
62963.062
63055.001
63151.862
63271.597
63426.011
63586.856
63821.707
64050.665
64395.882
64733.852
65227.702
65740.156
66443.263
67221.186
68226.665
69388.799
70825.465
72507.07
74503.197
76783.419
79325.56
82018.057
84729.654
87312.242
89656.121
91695.489
93413.404
94828.315
95972.363
96880.287
97595.641
98160.417
98607.535
98964.349
99257.369
99497.088
99693.499
99880.888
100075.54
100256.46
100392.41
100470.64
100505.41
100430.63
100154.35
62834.839
62862.261
62888.227
62925.509
62985.317
63048.497
63144.369
63246.095
63370.96
63533.824
63701.367
63948.28
64185.581
64546.116
64897.504
65411.958
65945.273
66675.986
67484.81
68527.445
69732.897
71218.788
72955.894
75009.948
77345.363
79928.185
82636.254
85331.756
87868.94
90146.398
92109.215
93750.075
95094.493
96177.778
97035.027
97709.806
98243.688
98668.212
99009.371
99291.632
99522.965
99714.348
99902.571
100100.21
100276.67
100399.54
100470.32
100501.24
100376.03
100134.45
62938.658
62968.865
62996.501
63035.8
63099.518
63166.078
63266.324
63373.582
63503.099
63673.637
63846.989
64105.133
64351.076
64727.414
65092.862
65628.845
66184.154
66943.716
67785.251
68867.126
70118.825
71657.303
73453.591
75568.665
77960.574
80582.29
83300.895
85973.029
88456.97
90660.863
92541.275
94100.604
95371.257
96391.359
97196.013
97828.705
98330.552
98731.684
99056.59
99327.401
99549.906
99736.454
99925.953
100127.56
100297.65
100405.98
100465.35
100492.36
100321.26
100114.57
63069.687
63100.466
63130.061
63171.342
63238.892
63308.438
63412.497
63524.758
63658.86
63837.389
64017.069
64287.314
64542.646
64935.681
65315.951
65874.36
66452.876
67242.633
68118.896
69242.416
70543.52
72137.957
73996.964
76175.851
78624.913
81282.897
84006.225
86647.452
89070.52
91194.322
92987.293
94461.475
95655.896
96611.064
97361.723
97951.215
98420.21
98797.409
99105.647
99364.431
99577.799
99759.949
99951.127
100157.23
100317.69
100412.21
100456.94
100474.17
100269.4
100095.87
63221.757
63253.63
63284.835
63328.085
63399.071
63471.706
63579.517
63696.96
63835.767
64022.837
64209.224
64492.13
64757.473
65168.027
65563.975
66145.772
66748.913
67570.417
68483.736
69651.544
71005.389
72659.299
74584.547
76829.67
79335.693
82026.236
84747.578
87349.915
89704.558
91742.211
93443.369
94829.517
95945.931
96834.999
97530.721
98076.269
98511.895
98864.853
99156.168
99402.536
99606.555
99784.996
99978.349
100186.61
100334.74
100417.29
100450.38
100440.85
100223.23
100078.82
63388.334
63421.805
63455.076
63500.863
63575.698
63652.043
63764.234
63887.626
64031.711
64228.173
64421.815
64718.154
64993.864
65422.646
65835.082
66441.34
67070.609
67925.549
68878.424
70093.319
71503.322
73220.178
75214.988
77528.195
80090.022
82808.258
85520.033
88075.134
90354.026
92300.013
93905.68
95201.643
96238.962
97061.328
97701.609
98202.819
98604.858
98933.486
99207.737
99441.516
99636.115
99811.73
100008.06
100213.5
100347.93
100419.73
100447.09
100393.53
100185.16
100063.81
63573.589
63608.614
63643.779
63691.931
63770.455
63850.36
63967.197
64097.098
64246.636
64452.776
64653.623
64963.805
65250.232
65697.989
66127.935
66759.792
67416.926
68307.236
69302.442
70567.446
72037.12
73820.466
75887.96
78270.506
80885.836
83625.704
86319.4
88818.568
91014.525
92863.779
94370.874
95575.134
96532.854
97288.385
97873.102
98329.89
98698.399
99002.81
99259.921
99480.954
99666.42
99840.162
100040.61
100237.11
100358.03
100420.76
100445.02
100341.74
100154.83
100051.17
63774.287
63811.192
63848.545
63899.416
63981.842
64065.867
64187.253
64323.972
64478.893
64694.905
64902.918
65227.575
65525.309
65993.058
66441.654
67100.444
67787.322
68715.099
69755.591
71073.798
72606.698
74459.982
76603.005
79055.263
81720.6
84474.762
87141.112
89575.492
91681.606
93429.61
94835.707
95947.397
96825.578
97514.583
98043.985
98456.556
98791.852
99072.353
99312.4
99520.554
99697.329
99870.128
100075.39
100258.31
100366.47
100421.03
100442.78
100292.09
100128.55
100040.47
63991.82
64030.51
64069.902
64123.326
64209.711
64297.854
64423.018
64566.279
64726.495
64952.907
65168.484
65508.593
65818.468
66307.257
66775.757
67462.835
68181.615
69149.237
70238.177
71612.817
73212.562
75139.281
77360.32
79881.772
82592.256
85352.144
87981.149
90341.755
92351.386
93994.121
95297.38
96316.197
97115.36
97738.52
98213.175
98581.982
98884.612
99141.672
99364.832
99560.183
99728.781
99901.365
100110.73
100278.82
100374.8
100420.9
100438.13
100248.27
100104.07
100030.81
64220.681
64261.339
64302.932
64359.148
64449.8
64542.347
64671.749
64822.217
64988.281
65226.279
65450.026
65806.638
66129.354
66640.203
67129.919
67846.931
68600.007
69610.002
70750.612
72184.946
73855.179
75858.773
78159.763
80748.741
83498.061
86253.939
88835.082
91112.982
93019.937
94553.983
95753.202
96679.409
97400.525
97958.914
98379.666
98705.407
98976.114
99210.355
99416.9
99599.639
99760.742
99933.698
100145.22
100298.99
100383.95
100420.7
100427.61
100212.09
100081.33
100021.16
64461.417
64504.314
64548.492
64607.837
64703.142
64800.417
64934.244
65093.037
65265.092
65515.418
65747.544
66121.39
66457.618
66991.625
67504.178
68252.955
69042.974
70098.012
71293.618
72791.018
74535.538
76619.41
79001.65
81655.192
84435.547
87176.617
89698.947
91885.307
93683.826
95106.329
96200.865
97035.194
97679.635
98174.722
98542.59
98826.186
99065.858
99278.03
99468.316
99638.772
99793.23
99967.183
100177.65
100317.86
100392.75
100421.84
100406.42
100183.55
100060.46
100010.74
64715.677
64760.747
64807.495
64869.91
64970.227
65072.46
65210.678
65378.435
65556.463
65819.754
66060.429
66452.356
66803.038
67361.589
67898.915
68681.497
69511.187
70613.946
71867.915
73431.876
75254.597
77421.911
79885.768
82599.387
85401.488
88116.02
90568.368
92654.667
94339.57
95648.352
96638.132
97381.783
97951.388
98385.075
98701.146
98943.748
99153.397
99344.358
99518.813
99677.428
99826.26
100002.1
100207.06
100334.78
100401.01
100425.74
100376.62
100158.11
100041.61
99999.412
64980.907
65028.493
65078.352
65144.229
65249.851
65357.41
65500.428
65677.552
65861.245
66138.605
66388.248
66799.538
67165.886
67750.635
68314.791
69133.236
70005.373
71158.609
72474.477
74108.778
76013.786
78267.395
80812.14
83579.74
86392.849
89068.276
91439.323
93417.397
94984.151
96177.714
97063.135
97717.709
98214.83
98589.31
98854.671
99057.585
99238.364
99409.046
99568.16
99715.459
99859.777
100038.63
100233.16
100349.76
100407.89
100428.26
100341.9
100133.88
100025.31
99987.329
65260.656
65310.54
65363.058
65431.897
65542.432
65655.168
65803.201
65990.314
66179.557
66471.764
66731.37
67163.43
67546.901
68159.467
68752.56
69608.892
70526.28
71732.855
73114.363
74823.059
76814.438
79156.593
81780.061
84593.797
87405.76
90028.854
92307.323
94169.597
95614.574
96692.22
97474.169
98041.752
98469.338
98786.72
99002.602
99167.158
99320.465
99471.84
99616.156
99752.712
99893.593
100075.61
100256.99
100362.64
100413.2
100429.45
100304.37
100109.92
100010.05
99976.05
65547.625
65600.567
65656.636
65729.351
65845.736
65964.783
66118.801
66316.748
66511.835
66820.502
67090.414
67544.869
67946.766
68588.78
69212.865
70109.099
71074.703
72337.748
73789.007
75576.458
77658.277
80090.414
82788.908
85639.097
88436.451
90993.408
93168.192
94907.819
96228.388
97190.167
97870.038
98353.297
98714.746
98976.408
99144.551
99271.896
99399.482
99532.539
99662.652
99789.069
99927.44
100112.57
100279.27
100373.67
100417.23
100429.87
100266.3
100086.8
99995.824
99965.59
65848.913
65904.903
65964.598
66041.063
66163.155
66288.359
66448.106
66657.17
66858.819
67185.48
67466.403
67944.313
68366.072
69039.052
69696.329
70634.56
71651.597
72974.594
74500.026
76370.814
78546.746
81069.207
83837.062
86712.224
89480.229
91956.98
94017.456
95628.698
96823.367
97669.984
98249.889
98652.292
98950.933
99157.174
99280.223
99371.287
99475.202
99590.985
99707.549
99824.512
99961.177
100149.09
100300.73
100383.82
100420.13
100429.96
100229.75
100065.25
99983.115
99956.406
66161.668
66220.731
66284.101
66364.291
66492.289
66624.318
66790.166
67011.318
67220.247
67567.09
67859.713
68362.227
68805.177
69510.771
70203.549
71186.091
72258.166
73645.053
75249.461
77208.298
79481.556
82093.265
84922.846
87809.62
90532.48
92914.867
94851.23
96329.799
97398.03
98130.432
98613.338
98939.174
99177.123
99328.159
99409.275
99465.22
99547.366
99647.079
99750.808
99859.183
99995.122
100184.45
100321.51
100394.18
100422.16
100424.26
100196.91
100046.05
99972.032
99948.471
66484.417
66547.141
66615.081
66699.813
66834.494
66974.351
67146.674
67380.909
67597.865
67964.661
68270.209
68798.992
69264.554
70004.429
70735.302
71764.793
72895.954
74351.079
76039.517
78091.015
80463.963
83162.034
86043.475
88926.696
91587.839
93862.013
95665.979
97009.461
97951.183
98570.188
98959.942
99213.882
99391.249
99489.598
99530.997
99554.335
99615.647
99700.756
99792.424
99893.354
100030.1
100217.6
100340.43
100403.29
100426.25
100406.03
100169.41
100029.43
99962.464
99941.618
66822.332
66888.606
66961.014
67050.116
67191.182
67339.118
67517.72
67765.842
67991.215
68379.107
68698.471
69254.925
69744.85
70520.665
71292.609
72372.114
73566.886
75095
76872.692
79021.279
81495.212
84274.765
87195.914
90058.752
92641.116
94794.084
96459.615
97667.193
98481.747
98988.139
99288.965
99474.467
99591.943
99642.491
99644.341
99639.928
99679.831
99751.977
99832.399
99927.337
100067.02
100247.45
100356.99
100410.64
100428.96
100375.47
100145.21
100015.06
99954.379
99935.819
67170.731
67240.901
67318.272
67412.374
67560.264
67717.567
67903.098
68166.471
68401.189
68811.483
69144.406
69730.413
70246.665
71060.456
71876.834
73009.925
74273.242
75879.357
77751.5
80001.108
82575.796
85429.609
88375.913
91200.113
93686.647
95707.27
97231.132
98302.111
98987.339
99383.572
99599.13
99718.208
99779.001
99787.809
99748.937
99722.543
99740.182
99800.684
99870.716
99961.313
100105.6
100273.86
100370.99
100416.18
100430.14
100337.52
100121.68
100002.32
99947.695
99931.092
67531.847
67606.258
67689.111
67788.741
67943.701
68111.316
68304.036
68583.678
68828.155
69261.551
69609.061
70226
70771.023
71625.084
72489.781
73680.475
75017.614
76706.932
78678.647
81032.536
83705.982
86624.302
89578.926
92345.135
94719.481
96599.371
97980.26
98910.692
99465.789
99755.376
99889.381
99944.899
99956.492
99923.554
99846.058
99800.187
99797.684
99846.763
99907.357
99995.244
100144.44
100297.86
100382.85
100420.43
100430.58
100295.78
100098.4
99990.772
99942.134
99927.245
67906.33
67985.303
68074.075
68179.67
68341.701
68520.39
68720.307
69017.09
69271.499
69728.783
70093.697
70742.643
71319.243
72216.242
73133.703
74386.372
75802.793
77580.56
79656.705
82117.05
84885.012
87855.26
90799.221
93487.541
95735.14
97469.257
98704.382
99488.579
99914.409
100102.62
100160.37
100158.13
100123.78
100049.6
99936.699
99870.787
99853.421
99890.052
99942.35
100028.96
100182.5
100320.17
100393.76
100424.25
100430.7
100253.9
100076.02
99980.326
99937.7
99924.487
68294.684
68378.391
68473.293
68585.143
68754.049
68944.388
69151.462
69466.549
69731.614
70214.447
70598.835
71281.471
71893.065
72836.119
73811.177
75130.47
76631.704
78503.246
80688.285
83255.986
86111.643
89118.444
92030.853
94621.695
96730.786
98316.396
99397.79
100032.04
100331.34
100426.71
100416.01
100357.72
100280.37
100166.13
100020.49
99935.301
99907.138
99930.474
99975.859
100062.52
100218.89
100340.82
100404.09
100427.94
100426.01
100214.61
100055.46
99971.052
99934.167
99923.077
68695.741
68784.336
68885.496
69003.975
69179.765
69382.824
69597.495
69932.603
70209.545
70719.766
71125.821
71844.586
72494.641
73487.257
74525.062
75915.757
77507.354
79477.94
81775.729
84449.726
87383.33
90408.317
93267.041
95742.17
97704.682
99136.805
100054.5
100537.42
100718.57
100732.71
100654.29
100544.05
100426.24
100273.26
100097.3
99994.654
99958.303
99968.292
100008.23
100096.58
100252.75
100359.19
100412.23
100430.79
100409.45
100180.37
100037.58
99963.117
99931.257
99922.385
69108.198
69202.405
69310.575
69436.502
69619.507
69837.04
70060.198
70417.07
70706.932
71246.198
71676.354
72434.45
73126.575
74172.398
75278.33
76745.291
78432.825
80507.734
82921.245
85698.221
88696.738
91718.93
94501.336
96845.043
98655.933
99923.126
100669.48
101003.95
101083.99
101018.13
100875.64
100717.5
100561.56
100371.19
100167.54
100049.44
100005.82
100004.26
100039.94
100132.2
100282.8
100374.7
100418.3
100432.1
100377.82
100152.79
100022.66
99956.818
99929.189
99922.072
69534.221
69635.183
69751.604
69885.923
70076.067
70309.351
70541.231
70921.457
71225.347
71795.632
72252.949
73053.012
73791.786
74894.453
76074.005
77622.21
79411.277
81595.625
84126.426
87000.143
90046.968
93043.103
95727.294
97927.342
99580.229
100667.51
101239.04
101438.64
101427.15
101282.7
101080.47
100878.5
100686.57
100460.28
100231.85
100100.12
100048.57
100039.09
100071.34
100169.58
100308.5
100387.38
100422.79
100432.62
100338.1
100127.82
100009.82
99951.877
99928.163
99921.942
69976.201
70084.858
70210.531
70354.252
70551.149
70800.942
71041.225
71446.789
71766.71
72370.686
72858.574
73702.56
74493.144
75656.449
76915.127
78549.745
80446.089
82744.641
85392.468
88353.36
91428.453
94373.794
96939.755
98987.5
100468.91
101364.03
101763.75
101849.06
101745.5
101526.84
101269.52
101027.55
100801.56
100541.02
100290.57
100146.62
100087.21
100072.56
100102.45
100206.53
100331.28
100398.58
100426.69
100432.8
100295.07
100104.21
99998.642
99947.706
99927.739
99921.888
70435.066
70551.081
70685.129
70839.818
71044.132
71311.823
71562.54
71995.752
72333.903
72974.074
73495.663
74386.379
75233.428
76461.369
77804.803
79531.345
81540.782
83957.491
86719.456
89754.009
92834.149
95703.62
98134.303
100022.09
101311.68
102008.29
102252.41
102233.21
102039.23
101751.27
101443.52
101165.16
100906.88
100613.83
100343.79
100188.82
100122.58
100104.51
100133.04
100241.67
100351.68
100408.86
100430.45
100430.67
100252.73
100082.67
99989.59
99945.209
99927.631
99922.175
70911.298
71034.932
71176.873
71344.293
71557.5
71845.527
72108.178
72571.56
72929.698
73608.099
74166.499
75107.32
76015.487
77312.216
78746.336
80570.752
82699.082
85236.627
88106.654
91197.205
94256.652
97026.175
99308.096
101021.68
102101.63
102600.66
102712.97
102588.43
102309.03
101956.88
101603.27
101291.9
101002.93
100679.06
100391.57
100226.96
100155.29
100134.86
100162.99
100274.49
100369.34
100416.7
100433.38
100420.06
100213.54
100063.71
99982.492
99944.042
99928.425
99923.843
71410.326
71541.651
71690.087
71871.749
72095.321
72405.958
72681.159
73176.476
73555.996
74274.634
74873.634
75867.591
76842.294
78212.324
79743.365
81672.092
83924.613
86583.658
89551.531
92676.38
95687.635
98335.459
100457.97
101973.98
102833.14
103150.24
103143.44
102915.01
102555.8
102144.6
101749.57
101408.33
101090.09
100736.96
100434.08
100261.39
100185.74
100163.77
100192.65
100304.38
100384.03
100422.37
100434.66
100396.67
100179.88
100047.38
99976.637
99943.617
99930.277
99926.313
71931.359
72073.252
72230.975
72428.211
72661.218
72994.856
73281.973
73810.959
74214.065
74975.799
75619.842
76669.815
77717.045
79165.386
80800.014
82839.819
85221.003
87999.26
91050.355
94184.077
97119.477
99626.649
101575.63
102869.55
103504.54
103667.29
103540.4
103213.84
102780.63
102315.44
101883.29
101515.07
101168.77
100787.75
100471.57
100292.48
100214.26
100191.56
100223
100330.47
100396.21
100426.57
100435.07
100360.38
100153.11
100033.6
99971.619
99943.543
99932.606
99929.256
72474.952
72628.028
72794.918
73008.688
73250.673
73610.268
73910.614
74476.38
74906.498
75714.475
76407.822
77517.355
78643.281
80175.634
81920.941
84078.639
86591.322
89482.546
92597.325
95711.487
98544.561
100895.39
102647.74
103701.42
104124.55
104150.24
103904.25
103486.06
102984.64
102470.42
102005.22
101612.63
101239.27
100831.69
100504.39
100320.66
100241.19
100218.55
100254.5
100352.46
100407.14
100430.3
100435.17
100318.53
100128.85
100021.97
99968.033
99944.293
99935.417
99932.598
73038.285
73204.108
73380.565
73612.155
73865.243
74255.449
74571.229
75176.638
75636.982
76493.816
77240.467
78413.489
79625.146
81247.974
83111.277
85393.313
88037.842
91031.219
94185.427
97249.882
99956.294
102135.96
103660.61
104465.26
104705.3
104595.48
104236.07
103733
103169.05
102610.59
102116.17
101701.47
101301.71
100869.07
100532.97
100346.38
100266.89
100244.9
100285.06
100371.5
100417.04
100434.22
100432.43
100275.36
100106.42
100012.58
99966.184
99945.993
99938.605
99936.195
73626.777
73807.236
73994.371
74246.609
74511.747
74934.437
75267.135
75914.61
76408.313
77316.521
78121.053
79362.292
80667.472
82388.055
84376.597
86788.188
89561.309
92640.662
95805.786
98790.257
101348.42
103334.55
104605.45
105167.58
105247.72
105002.54
104537.23
103956
103335.07
102736.98
102216.9
101781.98
101356.14
100900.18
100557.77
100370.04
100291.52
100270.56
100313.55
100387.43
100424.63
100437.59
100422.93
100234.51
100086.38
100005.02
99965.293
99948.107
99941.962
99939.902
74249.505
74444.766
74642.299
74916.34
75191.675
75648.771
75999.848
76692.134
77222.722
78185.109
79054.696
80368.91
81775.933
83602.117
85722.682
88266.954
91160.884
94304.503
97448.835
100324.3
102715.47
104475.12
105475.78
105820.53
105748.57
105372.62
104809.31
104156.55
103483.98
102850.64
102308.2
101854.73
101402.96
100925.32
100579.28
100392
100315.17
100295.41
100339.56
100400.45
100429.92
100439.09
100403
100199.23
100069.21
99998.795
99964.984
99950.438
99945.423
99943.678
74897.83
75110.07
75319.508
75617.809
75905.311
76400.074
76771.555
77511.564
78083.21
79103.473
80046.58
81440.037
82956.977
84896.804
87155.128
89832.03
92833.409
96014.094
99104.115
101843.38
104046.02
105544.67
106272.97
106430.55
106205.65
105707.29
105053.96
104336.1
103617
102952.57
102390.88
101920.62
101443.4
100944.77
100597.94
100412.51
100337.82
100319.28
100363.09
100411.55
100433.67
100439.56
100370.38
100171.94
100055.2
99993.535
99964.952
99953.073
99949.046
99947.588
75579.777
75810.586
76032.802
76356.902
76656.87
77191.833
77585.344
78376.367
78994.321
80077.474
81103.033
82582.539
84217.578
86278.87
88678.95
91484.224
94573.626
97759.561
100761.72
103340.05
105322.87
106534.59
107008.08
106995.17
106620.17
106008.45
105272.96
104496.17
103735.37
103043.78
102465.76
101980.67
101479.1
100959.19
100614.21
100431.78
100359.38
100341.96
100384.15
100421.88
100437.26
100439.31
100331.3
100148.69
100044.53
99990.829
99966.252
99956.4
99952.946
99951.734
76293.678
76545.223
76780.928
77133.318
77446.322
78025.641
78444.763
79291.2
79962.363
81114.663
82230.989
83803.882
85565.09
87754.989
90298.072
93221.92
96373.6
99529.458
102411.5
104805.85
106526.94
107440.27
107694.25
107509.83
106993.85
106278.07
105468.07
104638.2
103840.29
103125.23
102533.57
102035.14
101509.5
100970.03
100628.6
100449.95
100379.8
100363.26
100402.09
100431.18
100442.45
100434.95
100290.9
100127.83
100036.14
99989.65
99968.496
99960.167
99957.151
99956.134
77040.306
77315.286
77564.718
77949.768
78278.168
78907.433
79356.521
80262.795
80994.673
82222.761
83438.589
85111.966
87007.003
89331.366
92014.727
95040.987
98223.298
101312.22
104043.45
106222.81
107647.08
108271.04
108329.93
107975.65
107328.93
106518.31
105641.12
104763.7
103932.96
103197.89
102594.85
102083.28
101528.12
100979.19
100641.59
100467.19
100399.19
100383.28
100416.71
100438.46
100446.73
100424.81
100252.22
100109.02
100029.17
99989.24
99971.164
99964.174
99961.581
99960.733
77828.372
78127.745
78391.7
78816.497
79161.958
79845.47
80328.311
81298.483
82099.277
83409.184
84733.908
86515.267
88550.958
91013.272
93828.772
96934.082
100110.32
103095.44
105647.33
107569.58
108674.44
109041.7
108910.52
108394.45
107627.71
106731.29
105793.86
104874.05
104014.52
103262.62
102650.01
102124.18
101537.39
100986.76
100653.53
100483.63
100417.69
100402.32
100428.43
100443.49
100448.65
100406.44
100217.95
100092.62
100023.33
99989.189
99974.08
99968.369
99966.181
99965.491
78663.714
78991.779
79272.968
79738.746
80102.449
80845.498
81367.334
82406.605
83286.088
84681.007
86125.156
88022.728
90204.388
92804.397
95737.351
98891.279
102021.36
104866.59
107208.32
108828.88
109613.46
109755.94
109435.17
108768.81
107892.75
106919.22
105928.06
104970.66
104086.07
103320.29
102699.52
102158.13
101541.33
100993.03
100664.67
100499.32
100435.18
100420.05
100438.19
100447.38
100449.21
100377.05
100190.54
100079.02
100018.8
99989.818
99977.382
99972.784
99970.939
99970.385
79545.553
79908.112
80208.694
80722.352
81105.849
81914.466
82481.955
83595.575
84562.98
86049.276
87622.062
89643.446
91973.766
94706.007
97734.108
100899.72
103942.18
106612.71
108703.24
109988.89
110477.69
110409.89
109905.79
109101.39
108126.59
107084.21
106045.39
105054.85
104148.66
103371.67
102744.07
102186.81
101542.64
100997.61
100675.1
100514.16
100451.28
100435.75
100446.89
100452.47
100447.31
100340.88
100167.71
100067.82
100015.45
99991.2
99981.131
99977.446
99975.844
99975.355
80485.214
80886.938
81207.356
81776.428
82181.365
83061.531
83682.457
84875.592
85940.071
87524.704
89234.548
91385.902
93863.881
96716.306
99809.404
102944.71
105858.42
108320.78
110108.07
111046.49
111278.6
111000.1
110325.19
109395.19
108331.87
107228.4
106147.52
105127.92
104203.32
103417.55
102784.41
102211.86
101541.39
101000.93
100684.86
100527.92
100465.77
100449.54
100454.6
100459.04
100440.34
100303.14
100147.31
100058.95
100013.75
99993.307
99985.234
99982.346
99980.928
99980.338
81491.314
81937.277
82276.301
82909.559
83338.722
84296.724
84980.544
86257.862
87428.733
89118.254
90972.255
93257.718
95877.251
98829.826
101949.9
105009.78
107753.91
109965.82
111407.61
112013.43
112013.02
111528.41
110696.47
109653.24
108511.13
107353.79
106235.98
105191.06
104251
103458.59
102820.8
102231.47
101537.32
101003.36
100694.04
100540.71
100478.76
100461.39
100460.7
100462.38
100428.35
100266.54
100129.07
100051.95
100013.08
99995.686
99989.088
99986.866
99986.018
99985.581
82569.936
83068.151
83425.275
84132.733
84589.736
85631.34
86387.831
87752.857
89042.116
90841.319
92844.08
95264.693
98013.195
101036.97
104139.34
107077.47
109612.26
111520.37
112592.07
112908.08
112674.86
111997.88
111023.17
109878.68
108666.96
107462.38
106312.29
105245.47
104292.63
103495.39
102852.91
102243.17
101531.22
101005.24
100702.82
100552.94
100490.86
100470.87
100465.83
100463.57
100409.92
100233.5
100113.19
100046.25
100012.95
99998.201
99992.741
99990.929
99990.321
99991.039
83732.842
84292.478
84665.852
85458.274
85947.439
87076.943
87916.042
89372.219
90791.339
92704.559
94858.102
97410.569
100267.09
103323.59
106358.52
109128.07
111409.48
112962.74
113671.42
113727.58
113265.94
112412.14
111308.9
110074.6
108801.76
107555.99
106377.87
105292.25
104329.08
103528.36
102880.45
102249.18
101523.75
101006.85
100711.3
100564.51
100501.95
100479.21
100470.61
100463.72
100382.47
100206.7
100100.04
100041.7
100013.17
100000.94
99996.514
99995.04
99994.613
99995.819
84990.665
85623.26
86009.596
86897.997
87424.472
88643.55
89576.108
91128.353
92685.724
94718.307
97021.8
99695.994
102629.4
105671.36
108586.53
111141.16
113114.67
114279.04
114664.53
114466.16
113789.64
112775.33
111557.46
110244.07
108917.92
107636.45
106434.07
105332.47
104361.09
103557.83
102903.76
102252.49
101515.41
101008.31
100719.57
100575.33
100511.79
100486.47
100475.67
100459.56
100348.64
100184.98
100089.42
100038.49
100014.26
100004.09
100000.51
99999.299
99999.024
99999.857
86352.132
87073.768
87469.013
88462.735
89032.161
90339.818
91377.859
93031.899
94736.204
96893.932
99341.285
102116.99
105084.65
108057.61
110799.74
113092.28
114699.48
115475.31
115572.43
115123.93
114250.15
113091.71
111772.49
110389.99
109017.67
107705.4
106482.17
105367.1
104389.36
103584.22
102923.8
102253.83
101506.74
101010.17
100727.69
100585.57
100520.88
100492.65
100478.69
100450.34
100313.64
100165.72
100080.83
100036.52
100016.03
100007.57
100004.61
100003.59
100003.41
100003.38
87838.445
88661.329
89055.021
90157.68
90779.675
92177.459
93337.7
95093.966
96956.505
99243.34
101818.98
104662.58
107611.21
110456.71
112972.58
114946.43
116146.56
116570.04
116389.34
115704.69
114652.31
113365.77
111957.69
110515.24
109103.16
107764.47
106523.39
105397.09
104414.56
103608.18
102941.91
102253.23
101498.59
101012.67
100735.81
100595.23
100529.09
100497.79
100479.98
100436.35
100279.74
100148.54
100074.07
100035.71
100018.12
100011.03
100008.57
100007.68
100007.48
100007.08
89444.796
90381.434
90768.249
91984.374
92680.494
94173.743
95472.335
97341.894
99365.464
101775.29
104449.8
107313.57
110181.62
112840.09
115077.62
116669.09
117458.31
117567.35
117114.41
116213.25
115001.19
113601.92
112116.57
110622.48
109176.37
107815.12
106558.85
105423.29
104437.33
103630.38
102958.75
102249.37
101492.41
101015.94
100744.13
100604.18
100535.55
100500.63
100480.35
100416.96
100248.98
100133.64
100068.69
100035.54
100020.32
100014.28
100012.22
100011.46
100011.23
100010.67
91193.772
92246.902
92635.098
93967.871
94765.28
96360.559
97812.779
99801.269
101977.17
104489.16
107217.81