/*--------------------------------*- C++ -*----------------------------------*\
  =========                 |
  \\      /  F ield         | OpenFOAM: The Open Source CFD Toolbox
   \\    /   O peration     | Website:  https://openfoam.org
    \\  /    A nd           | Version:  8
     \\/     M anipulation  |
\*---------------------------------------------------------------------------*/
FoamFile
{
    version     2.0;
    format      ascii;
    class       surfaceScalarField;
    location    "0.250004";
    object      phi;
}
// * * * * * * * * * * * * * * * * * * * * * * * * * * * * * * * * * * * * * //

dimensions      [1 0 -1 0 0 0 0];

internalField   nonuniform List<scalar> 
39600
(
0.0002180941
-0.0077137721
0.0075231622
0.00027805353
-0.010996149
0.010942613
0.00033291726
-0.01457025
0.014522475
0.00037548613
-0.018980068
0.018944886
0.00040164376
-0.024589227
0.02457257
0.00038369224
-0.031919243
0.031948747
0.00010230702
-0.039275735
0.03957051
-0.00027927311
-0.047593197
0.047990157
-0.00073101155
-0.056552478
0.057022181
-0.0012753804
-0.068133916
0.068698995
-0.0019202132
-0.081269995
0.081940212
-0.002695725
-0.097683793
0.098489153
-0.0036147561
-0.11672628
0.11768065
-0.0047175749
-0.14011522
0.14126053
-0.0060216417
-0.1676212
0.16897575
-0.0075716286
-0.20107937
0.20269079
-0.0093974846
-0.24072816
0.24262609
-0.011556816
-0.2886943
0.29094207
-0.014090777
-0.34582633
0.34846155
-0.017079155
-0.41470552
0.41781734
-0.020602894
-0.49698961
0.50065242
-0.024729376
-0.59599201
0.60026072
-0.029552191
-0.71442022
0.71941565
-0.035214353
-0.85663095
0.86249252
-0.041831654
-1.026681
1.0335314
-0.049607787
-1.2300389
1.2380782
-0.058896819
-1.4726313
1.4822448
-0.070130915
-1.7613065
1.7728841
-0.083730489
-2.1039933
2.1179646
-0.10020208
-2.5105942
2.5274576
-0.12005828
-2.9935776
3.0138457
-0.14381502
-3.5684731
3.5926675
-0.17200212
-4.2543145
4.2829615
-0.20516516
-5.074065
5.1077108
-0.2438804
-6.0554736
6.0947015
-0.28872879
-7.2314623
7.2768768
-0.34033043
-8.641427
8.693654
-0.39920649
-10.332894
10.392489
-0.46568753
-12.362692
12.430003
-0.53968691
-14.798765
14.87378
-0.62044599
-17.722618
17.804633
-0.70606561
-21.232804
21.319949
-0.79281856
-25.447404
25.536022
-0.8742866
-30.508333
30.592139
-0.94005613
-36.585733
36.654241
-0.97503528
-43.887453
43.924985
-0.94995741
-52.653537
52.630125
-0.83566669
-63.194273
63.080497
-0.54821192
-75.806381
75.520322
-91.009337
90.473774
6.1708446e-05
-0.0077511212
9.827572e-05
-0.011027142
0.00012377028
-0.014588712
0.00013690046
-0.018986207
0.00013694816
-0.024580928
9.0547712e-05
-0.031864224
-0.00018113382
-0.03899401
-0.00053642315
-0.047226274
-0.00095488833
-0.056119311
-0.0014568422
-0.067614401
-0.0020519059
-0.080654148
-0.0027655415
-0.09694548
-0.0036136458
-0.11584898
-0.0046312216
-0.13906204
-0.0058295516
-0.16637989
-0.0072500975
-0.19960768
-0.0089182224
-0.23899545
-0.010899416
-0.28663981
-0.013224344
-0.34341496
-0.015988094
-0.41184465
-0.019227846
-0.49363661
-0.023054114
-0.59203116
-0.027546014
-0.70976776
-0.032855858
-0.85112914
-0.039117059
-1.0201942
-0.046540388
-1.2223514
-0.055484946
-1.4633849
-0.066371064
-1.750077
-0.079663425
-2.0903328
-0.095828951
-2.494047
-0.11537184
-2.973632
-0.13878517
-3.54463
-0.1665723
-4.2260753
-0.1992584
-5.0409023
-0.23740605
-6.0168195
-0.28158111
-7.1867271
-0.33238504
-8.5900016
-0.39033445
-10.274228
-0.45577237
-12.296425
-0.52863425
-14.724891
-0.60821369
-17.641788
-0.69272431
-21.146769
-0.77858863
-25.359669
-0.85964904
-30.424913
-0.92592933
-36.516679
-0.96180589
-43.84895
-0.9425651
-52.671586
-0.83571362
-63.300903
-0.56490936
-76.075754
-91.520403
3.2589791e-05
-0.0077676403
4.5515162e-05
-0.011037693
5.1974034e-05
-0.014591358
4.9950016e-05
-0.018980261
4.4652653e-05
-0.024569394
-6.423435e-06
-0.031805125
-0.00026212708
-0.038729711
-0.00058935493
-0.046889264
-0.00098042939
-0.055716835
-0.0014520535
-0.067129218
-0.0020140623
-0.080074752
-0.0026880916
-0.096250698
-0.0034836752
-0.11502545
-0.004436128
-0.13807801
-0.0055463159
-0.16523285
-0.0068739736
-0.19823668
-0.0084334164
-0.23738739
-0.010282963
-0.28473471
-0.012462029
-0.34116862
-0.015057611
-0.40916802
-0.018118048
-0.49047896
-0.02175251
-0.58828054
-0.026028748
-0.70535065
-0.031107587
-0.84588245
-0.037136262
-1.0139666
-0.044325256
-1.2149122
-0.053054874
-1.4543644
-0.063729934
-1.7390892
-0.076799011
-2.0769231
-0.092738638
-2.4777456
-0.11202907
-2.9539553
-0.1351404
-3.5211028
-0.16255127
-4.1982232
-0.19477184
-5.0082144
-0.23234859
-5.9787441
-0.27583184
-7.142691
-0.32582503
-8.5393926
-0.38284477
-10.216497
-0.44724543
-12.231197
-0.51899041
-14.652133
-0.59744272
-17.562088
-0.68090359
-21.061782
-0.76597404
-25.272719
-0.84675651
-30.341731
-0.91372432
-36.446882
-0.95185963
-43.808156
-0.9386021
-52.68397
-0.83879729
-63.40085
-0.5842085
-76.330349
-92.006887
1.9397134e-05
-0.007771582
2.3034632e-05
-0.01103683
2.1001844e-05
-0.014584448
1.3416588e-05
-0.018967415
7.8330094e-06
-0.024557478
-5.0609165e-05
-0.03174052
-0.00029836438
-0.03847429
-0.0006052499
-0.046573134
-0.00097398647
-0.055336027
-0.0014201206
-0.066668931
-0.0019515748
-0.079527322
-0.0025927304
-0.095590527
-0.0033336804
-0.11426422
-0.0042065073
-0.13718078
-0.005232801
-0.16417733
-0.0064638139
-0.19696989
-0.0079211286
-0.23588788
-0.0096590003
-0.28294504
-0.011714335
-0.33905004
-0.014161368
-0.40664391
-0.017056991
-0.48749049
-0.020510148
-0.58471565
-0.02457638
-0.70115169
-0.029431825
-0.84085154
-0.03522887
-1.0079623
-0.042218834
-1.2076873
-0.050729826
-1.4455831
-0.061190304
-1.7283292
-0.074056232
-2.0637301
-0.089795795
-2.4616577
-0.10886275
-2.9345147
-0.13169986
-3.4978615
-0.15876482
-4.1707277
-0.19055236
-4.9759694
-0.22760165
-5.9412051
-0.27044789
-7.0993006
-0.3196939
-8.4895377
-0.37585425
-10.15963
-0.43930443
-12.166923
-0.5100376
-14.58039
-0.58747968
-17.483404
-0.67004385
-20.977696
-0.75447542
-25.186402
-0.83517267
-30.258596
-0.90304027
-36.376161
-0.94367962
-43.764871
-0.93615291
-52.690587
-0.84444702
-63.492785
-0.60607794
-76.56956
-92.468514
1.7562269e-06
-0.0077734145
-3.674329e-06
-0.011034307
-1.0647277e-05
-0.014577507
-2.0141545e-05
-0.018957013
-2.1493828e-05
-0.024552212
-8.2379351e-05
-0.031674519
-0.00032305119
-0.038227295
-0.00061650987
-0.046272591
-0.00096511938
-0.054979278
-0.0013761733
-0.066247599
-0.001860123
-0.079031161
-0.0024411665
-0.094994261
-0.003117577
-0.11357004
-0.0039326995
-0.13634394
-0.0048999691
-0.16318335
-0.006060427
-0.19577706
-0.007427882
-0.23448164
-0.0090670644
-0.28125888
-0.011013636
-0.33704767
-0.013328328
-0.40426359
-0.016065077
-0.484664
-0.019330233
-0.58134299
-0.023211393
-0.69714132
-0.027857127
-0.8360569
-0.033430543
-1.0022112
-0.040196983
-1.2007109
-0.048494931
-1.4370417
-0.058761385
-1.717792
-0.071446768
-2.0507444
-0.087007398
-2.4457719
-0.10587184
-2.9152969
-0.12846004
-3.4748872
-0.15520746
-4.1435648
-0.18659873
-4.9441339
-0.22315508
-5.9041704
-0.26541395
-7.0565084
-0.31396927
-8.4403821
-0.36934886
-10.103552
-0.43193759
-12.103514
-0.50177111
-14.509549
-0.57833491
-17.405606
-0.66014716
-20.894369
-0.74412407
-25.10053
-0.82492257
-30.175307
-0.89393539
-36.304282
-0.93804648
-43.718246
-0.93552758
-52.692087
-0.85240379
-63.576139
-0.63062682
-76.79304
-92.905131
3.2331552e-06
-0.0077682307
-1.7262307e-06
-0.011025644
-1.0539543e-05
-0.014565012
-2.2415281e-05
-0.018941204
-2.3181128e-05
-0.024546934
-9.1747008e-05
-0.031600978
-0.00032013419
-0.037993331
-0.00059091292
-0.04599528
-0.00091079636
-0.054651571
-0.0012882002
-0.06586038
-0.0017352306
-0.078572413
-0.0022713667
-0.094444542
-0.0029072917
-0.11291747
-0.0036791788
-0.13555155
-0.0045944031
-0.16224348
-0.005693077
-0.19464868
-0.006979285
-0.23315905
-0.0085351231
-0.27965576
-0.010377232
-0.33514768
-0.012579586
-0.40199111
-0.015169332
-0.48199318
-0.018254395
-0.57816026
-0.021932518
-0.69334539
-0.026361449
-0.83148558
-0.031717757
-0.99668523
-0.038274186
-1.193956
-0.046377879
-1.4287081
-0.056469292
-1.7074427
-0.068997325
-2.0379302
-0.084401452
-2.4300567
-0.10308739
-2.8962716
-0.1254505
-3.4521517
-0.1519082
-4.1167044
-0.18293415
-4.9126757
-0.21904059
-5.8675968
-0.26076709
-7.0142594
-0.30869622
-8.3918619
-0.36336645
-10.04819
-0.42518476
-12.040882
-0.49422009
-14.439511
-0.5700415
-17.328558
-0.65125638
-20.81165
-0.73495038
-25.014926
-0.81605745
-30.091647
-0.88644022
-36.231045
-0.93445818
-43.667865
-0.93722505
-52.688402
-0.86282699
-63.651444
-0.65795483
-77.000295
-93.316797
-7.3987666e-06
-0.0077616694
-1.3841209e-05
-0.011018997
-2.0797295e-05
-0.014556798
-2.7733802e-05
-0.018931748
-1.8074504e-05
-0.024553689
-8.6737079e-05
-0.03152833
-0.00029598597
-0.037779881
-0.00054587288
-0.04573934
-0.00084133391
-0.054349143
-0.0011961617
-0.065496766
-0.001615665
-0.07814238
-0.0021196239
-0.093927024
-0.0027228636
-0.11229719
-0.0034586827
-0.13479483
-0.0043188845
-0.16135793
-0.0053588167
-0.1935785
-0.0065889696
-0.23189213
-0.0080670037
-0.27813556
-0.0098036368
-0.33336096
-0.011875246
-0.39985978
-0.014322518
-0.47947348
-0.017245532
-0.57515018
-0.020732585
-0.68975355
-0.024950229
-0.82714285
-0.030097674
-0.99138827
-0.03645595
-1.1874204
-0.044382941
-1.4205748
-0.054322297
-1.69727
-0.066715955
-2.0252749
-0.081986784
-2.4144978
-0.10051591
-2.8774244
-0.12267747
-3.4296374
-0.14887351
-4.090123
-0.1795683
-4.8815643
-0.21526982
-5.8314419
-0.25650575
-6.972514
-0.30386642
-8.3439214
-0.35791034
-9.993465
-0.41905178
-11.978933
-0.48740854
-14.370156
-0.56261444
-17.252136
-0.64338676
-20.729387
-0.72698224
-24.929396
-0.80860897
-30.007395
-0.88060266
-36.156238
-0.93259585
-43.613865
-0.94135718
-52.679173
-0.87563639
-63.718515
-0.68796339
-77.192033
-93.703195
-6.871174e-06
-0.007756973
-9.7476831e-06
-0.011014897
-1.2313894e-05
-0.014553012
-1.1856946e-05
-0.01892956
8.1370039e-06
-0.02456982
-6.1279952e-05
-0.031453552
-0.00025964965
-0.03757678
-0.00049539121
-0.045497392
-0.00077363585
-0.05406337
-0.0011133945
-0.065147578
-0.0015120639
-0.077732682
-0.0019947317
-0.093431133
-0.0025733859
-0.11170282
-0.0032701103
-0.13407928
-0.0040819084
-0.16052382
-0.0050643343
-0.19256929
-0.0062229425
-0.23070171
-0.007611827
-0.27670839
-0.0092437512
-0.33168237
-0.011193987
-0.39785321
-0.013507808
-0.4770919
-0.016280354
-0.57229592
-0.019598234
-0.68633667
-0.023620297
-0.82300137
-0.028566316
-0.98629917
-0.034745643
-1.1810722
-0.04251828
-1.4126058
-0.052329653
-1.687237
-0.064614229
-2.0127411
-0.079773829
-2.3990634
-0.098169561
-2.8587245
-0.12015399
-3.4073145
-0.14611461
-4.0637908
-0.17650856
-4.850767
-0.21184331
-5.7956664
-0.25264524
-6.9312151
-0.29950978
-8.2964882
-0.35299753
-9.9393055
-0.41355506
-11.917574
-0.4813491
-14.30137
-0.55607778
-17.176203
-0.63657344
-20.647414
-0.72025392
-24.84375
-0.80263232
-29.922319
-0.87675085
-36.079382
-0.93241038
-43.556605
-0.94825008
-52.66302
-0.8907726
-63.776954
-0.72041013
-77.368218
-94.064021
-6.4809796e-06
-0.0077569662
-5.3641941e-06
-0.011015223
-2.4853453e-06
-0.01455492
3.3700879e-06
-0.018933141
2.7870435e-05
-0.024591157
-4.662335e-05
-0.03137482
-0.00023618083
-0.037383079
-0.00045802136
-0.045269483
-0.00072394831
-0.053791009
-0.001048894
-0.064814358
-0.0014278123
-0.077344013
-0.0018920932
-0.092954898
-0.0024303144
-0.11115039
-0.0030818692
-0.13341056
-0.0038460425
-0.15973902
-0.0047750427
-0.19161565
-0.0058637248
-0.22958325
-0.0071697743
-0.27536682
-0.0087061554
-0.33010349
-0.010544961
-0.39596354
-0.012727311
-0.47484795
-0.015351379
-0.56959778
-0.018511622
-0.68308691
-0.022364343
-0.81904131
-0.027130971
-0.98140395
-0.033146956
-1.1749042
-0.040790223
-1.4047853
-0.050499734
-1.6773269
-0.06270038
-2.0003127
-0.077773297
-2.3837367
-0.096057642
-2.8401563
-0.11788874
-3.3851646
-0.14364203
-4.037684
-0.17377773
-4.8202445
-0.20878771
-5.760231
-0.24920419
-6.8903162
-0.29562911
-8.2495076
-0.34864268
-9.8856312
-0.40872111
-11.856702
-0.47606188
-14.233044
-0.55046029
-17.100613
-0.63084453
-20.565563
-0.71480931
-24.757777
-0.79815608
-29.836205
-0.87485792
-36.000072
-0.93385878
-43.496226
-0.95625653
-52.64036
-0.90998474
-63.823797
-0.75648589
-77.530644
-94.399521
-4.5102291e-06
-0.0077565595
-1.4772781e-06
-0.011016122
5.2786085e-06
-0.01455929
1.6438315e-05
-0.018941438
4.5462293e-05
-0.02461655
-3.1916928e-05
-0.031293581
-0.00020974255
-0.037201069
-0.00042644377
-0.045047297
-0.00067806354
-0.053533248
-0.00098687891
-0.064497705
-0.0013426473
-0.076979295
-0.0017849197
-0.092501284
-0.002286837
-0.1106354
-0.0029005307
-0.13278104
-0.0036222526
-0.15899834
-0.0044985754
-0.19071646
-0.005522091
-0.22853239
-0.0067510319
-0.27410497
-0.0081972682
-0.32861717
-0.0099299942
-0.39418235
-0.011989438
-0.47272981
-0.014474243
-0.56704207
-0.017482876
-0.6799924
-0.021185587
-0.81523524
-0.025797894
-0.97666792
-0.031669199
-1.1688869
-0.03920915
-1.397076
-0.0488454
-1.667499
-0.06098839
-1.9879526
-0.075998847
-2.3684842
-0.094195333
-2.821689
-0.11590226
-3.3631528
-0.14148194
-4.0117647
-0.17138946
-4.7899641
-0.20612168
-5.7250869
-0.2461977
-6.8497715
-0.29225011
-8.2029122
-0.34486996
-9.8323617
-0.4045646
-11.796221
-0.47158265
-14.165047
-0.54578489
-17.025231
-0.62623102
-20.483656
-0.71067746
-24.671272
-0.7952441
-29.748791
-0.87442101
-35.918368
-0.93738758
-43.432039
-0.96694818
-52.610526
-0.93212526
-63.859093
-0.79628391
-77.678093
-94.709352
-1.0170202e-05
-0.0077563241
-6.9919881e-06
-0.011018222
1.9249709e-06
-0.014566868
1.8003501e-05
-0.018955685
4.8601918e-05
-0.024644291
-3.2678931e-05
-0.031209054
-0.00019957504
-0.037030718
-0.00040464414
-0.044837693
-0.0006407816
-0.053291716
-0.00092996248
-0.064201575
-0.0012652739
-0.07663568
-0.0016771836
-0.092079223
-0.0021510799
-0.11014929
-0.0027336279
-0.13218367
-0.0034135441
-0.1583006
-0.0042370573
-0.18987151
-0.0051991291
-0.22754439
-0.0063553079
-0.27291765
-0.0077159811
-0.32721908
-0.0093478507
-0.39250557
-0.011290527
-0.47073286
-0.013644855
-0.56462245
-0.016513782
-0.67704469
-0.020077952
-0.8115767
-0.02456123
-0.97207208
-0.030319268
-1.1629962
-0.037780055
-1.3894616
-0.047371924
-1.6577328
-0.059485027
-1.975641
-0.074462773
-2.3532834
-0.092601906
-2.803298
-0.11421084
-3.3412578
-0.1396461
-3.9860077
-0.16935452
-4.7598996
-0.20384928
-5.6901962
-0.2436536
-6.8095139
-0.28939716
-8.1566401
-0.34170347
-9.7794178
-0.40110864
-11.736038
-0.46792825
-14.097256
-0.54209239
-16.949898
-0.62276656
-20.401516
-0.70791166
-24.584009
-0.79394141
-29.659838
-0.87578382
-35.834067
-0.94326086
-43.363532
-0.98014663
-52.573812
-0.95729009
-63.88293
-0.83960611
-77.807419
-94.992813
-1.0391298e-05
-0.00775722
-5.5821051e-06
-0.011022635
7.1327773e-06
-0.014578515
3.0664865e-05
-0.018977292
6.2599996e-05
-0.024673396
-2.3004732e-05
-0.031120319
-0.00018013496
-0.036870256
-0.00037044014
-0.044642799
-0.00059269982
-0.053064144
-0.0008658145
-0.063921664
-0.0011818211
-0.076311769
-0.0015703679
-0.091680927
-0.0020177729
-0.10969028
-0.0025691604
-0.13161826
-0.0032078409
-0.15764498
-0.0039815242
-0.18907756
-0.0048849868
-0.22661643
-0.0059716723
-0.27180163
-0.007250951
-0.32590407
-0.0087872832
-0.39092611
-0.010626693
-0.46884115
-0.012865847
-0.5623202
-0.015606978
-0.67422724
-0.019036827
-0.80805541
-0.023414097
-0.96758577
-0.029092316
-1.1571899
-0.036499434
-1.3819068
-0.046076747
-1.6479889
-0.058193973
-1.9633341
-0.073172897
-2.3380915
-0.091280978
-2.7849497
-0.11280819
-3.3194574
-0.13811565
-3.9603921
-0.16766024
-4.7300128
-0.20195944
-5.6555149
-0.24155123
-6.769483
-0.28706392
-8.1106125
-0.33914477
-9.7267112
-0.39837315
-11.676039
-0.46511533
-14.029551
-0.53939302
-16.874459
-0.62048166
-20.318945
-0.70654345
-24.495759
-0.79433258
-29.569115
-0.87959332
-35.746462
-0.95133529
-43.29076
-0.99589041
-52.52986
-0.98562147
-63.895467
-0.88648036
-77.918381
-95.24905
-1.337548e-05
-0.0077589092
-6.7364334e-06
-0.011029295
9.5903073e-06
-0.014594367
4.0852027e-05
-0.019007194
7.1854448e-05
-0.024702039
-1.8053007e-05
-0.031027605
-0.00016544438
-0.036719973
-0.00034676099
-0.044457156
-0.00055625373
-0.052849874
-0.00081479385
-0.063656724
-0.0011113158
-0.076007866
-0.0014765906
-0.09130633
-0.0018974443
-0.10925852
-0.0024170537
-0.1310852
-0.0030165704
-0.15702947
-0.0037447614
-0.18833002
-0.0045934345
-0.22574446
-0.0056144351
-0.27075261
-0.0068157656
-0.32466896
-0.0082673506
-0.38943401
-0.010016819
-0.46704273
-0.012152367
-0.56012593
-0.014777724
-0.67153115
-0.018091123
-0.80465784
-0.022373805
-0.96320307
-0.027995793
-1.1514509
-0.035386017
-1.3743818
-0.044986509
-1.6382368
-0.057145082
-1.9510017
-0.072144344
-2.3228959
-0.09023335
-2.7666376
-0.11169964
-3.2977355
-0.13690797
-3.9348925
-0.16633034
-4.7002646
-0.20048579
-5.6209933
-0.23991741
-6.7296279
-0.28527481
-8.064755
-0.33723326
-9.6741396
-0.39639004
-11.616121
-0.4631907
-13.961797
-0.53773647
-16.798757
-0.61942551
-20.235743
-0.70662781
-24.406295
-0.79698535
-29.475926
-0.88591302
-35.655411
-0.96274198
-43.212618
-1.0134178
-52.479851
-1.0172746
-63.896053
-0.93700158
-78.010195
-95.477562
-1.2336889e-05
-0.0077611999
-3.3774787e-06
-0.011037267
1.7258813e-05
-0.014613503
5.7595308e-05
-0.019045719
8.5856956e-05
-0.024727677
-7.8876345e-06
-0.030931169
-0.00014613836
-0.036578627
-0.00031764439
-0.044281654
-0.00051432349
-0.052648486
-0.00075850862
-0.063406488
-0.0010359836
-0.075723324
-0.0013812152
-0.0909523
-0.0017760076
-0.10885324
-0.0022648681
-0.13058361
-0.0028277133
-0.15645132
-0.0035124376
-0.187627
-0.0043090778
-0.2249256
-0.0052671827
-0.26976771
-0.0063999886
-0.32350362
-0.0077775517
-0.38801722
-0.0094359161
-0.46533694
-0.011465738
-0.55803894
-0.013988752
-0.66893935
-0.01721421
-0.80135024
-0.021429064
-0.95889106
-0.027024547
-1.1457417
-0.034442371
-1.366834
-0.044104098
-1.6284291
-0.05632594
-1.9386135
-0.071355282
-2.307679
-0.089442638
-2.7483375
-0.11087677
-3.2760575
-0.13602304
-3.9094678
-0.16536299
-4.6706121
-0.19942556
-5.5865783
-0.23875948
-6.6898847
-0.28403668
-8.0189917
-0.33595478
-9.6216205
-0.39516918
-11.556153
-0.46216199
-13.893861
-0.5371417
-16.722623
-0.61962158
-20.151707
-0.7081955
-24.315385
-0.80127718
-29.380256
-0.89390912
-35.560912
-0.97648155
-43.128994
-1.0340282
-52.421913
-1.0522752
-63.885115
-0.99113699
-78.081584
-95.677194
-1.2590216e-05
-0.0077650697
-1.578051e-06
-0.011047429
2.3040806e-05
-0.014636593
7.3579003e-05
-0.019094414
9.8246579e-05
-0.024749704
2.2487458e-06
-0.030832542
-0.00012695639
-0.036446458
-0.0002886561
-0.044116032
-0.00047214527
-0.052460504
-0.00070214348
-0.06317072
-0.00096068914
-0.075458043
-0.0012867753
-0.090617774
-0.001658261
-0.10847181
-0.0021184474
-0.13011125
-0.0026467308
-0.15590855
-0.0032900298
-0.18696611
-0.0040378388
-0.22415652
-0.0049393749
-0.26884059
-0.0060119546
-0.32240007
-0.0073143736
-0.38667768
-0.0088781928
-0.46372835
-0.010810154
-0.55605343
-0.01324305
-0.66644224
-0.016402987
-0.79811443
-0.020588473
-0.95461607
-0.026198477
-1.1400275
-0.033684668
-1.359229
-0.043435097
-1.6185453
-0.055731071
-1.926165
-0.0708114
-2.2924258
-0.088924131
-2.7300274
-0.1103537
-3.2544001
-0.13547202
-3.8840869
-0.16477223
-4.6410153
-0.19879322
-5.5522205
-0.23809839
-6.6501858
-0.28336737
-7.9732513
-0.33534613
-9.5690537
-0.39473363
-11.496021
-0.46207187
-13.825588
-0.53764545
-16.645894
-0.62112498
-20.06662
-0.71130219
-24.222796
-0.80722741
-29.282012
-0.90351195
-35.462956
-0.99189125
-43.039623
-1.0588878
-52.354116
-1.0900501
-63.862931
-1.0488506
-78.131575
-95.846683
-1.3350533e-05
-0.0077698398
-8.2902661e-07
-0.011059082
2.6724451e-05
-0.014662662
8.706727e-05
-0.019152955
0.00010598365
-0.024766102
8.2689146e-06
-0.030732315
-0.00011282021
-0.036322543
-0.00026532098
-0.043959726
-0.00043648952
-0.052285004
-0.00065339228
-0.062948202
-0.00089509377
-0.075209879
-0.0012030462
-0.090301747
-0.0015523405
-0.10811296
-0.001985764
-0.12966622
-0.0024812716
-0.15539907
-0.0030852365
-0.18634549
-0.0037858992
-0.22343552
-0.0046381567
-0.26796372
-0.0056522554
-0.32135605
-0.0068749043
-0.38541895
-0.0083537942
-0.46220594
-0.010203709
-0.55415114
-0.012567832
-0.6640155
-0.015678503
-0.79492934
-0.019863643
-0.95034377
-0.025530177
-1.1342594
-0.033113925
-1.3515301
-0.042976655
-1.6085543
-0.055366989
-1.9136283
-0.070525541
-2.2771019
-0.088688683
-2.7116759
-0.11014287
-3.2327288
-0.13526868
-3.8587103
-0.16457406
-4.6114259
-0.19861198
-5.517859
-0.23794547
-6.6104724
-0.28329384
-7.927445
-0.33543349
-9.5163382
-0.39510491
-11.435616
-0.46292922
-13.756837
-0.53928973
-16.568373
-0.62397495
-19.980275
-0.71619042
-24.128112
-0.81494341
-29.181172
-0.91517129
-35.361195
-1.0101797
-42.943583
-1.0868965
-52.276558
-1.1312464
-63.827549
-1.1106439
-78.159692
-95.985518
-1.3199802e-05
-0.0077760928
1.5016219e-06
-0.011072782
3.2196952e-05
-0.014691794
0.00010308151
-0.01922191
0.00011589741
-0.024776424
2.0655367e-05
-0.0306345
-9.2776134e-05
-0.036206349
-0.00023716247
-0.043811587
-0.00039751546
-0.052120485
-0.00060333902
-0.062736953
-0.00083102834
-0.074975977
-0.0011216231
-0.090003342
-0.0014480349
-0.10777741
-0.0018549178
-0.12924813
-0.0023191009
-0.15492157
-0.0028854685
-0.18576297
-0.0035432503
-0.22275815
-0.0043459965
-0.2671374
-0.00529969
-0.32037377
-0.0064503883
-0.38423394
-0.0078608401
-0.46075427
-0.0096453284
-0.55231733
-0.011958993
-0.66164335
-0.015044561
-0.79177478
-0.019247659
-0.94606045
-0.025006874
-1.1284069
-0.032723417
-1.3437083
-0.042714042
-1.5984466
-0.055227539
-1.9009805
-0.07048815
-2.2616887
-0.088728609
-2.6932607
-0.11023736
-3.2110172
-0.13540736
-3.8333042
-0.164764
-4.5818001
-0.19887364
-5.4834408
-0.23831138
-6.5706696
-0.28382408
-7.8814884
-0.33622367
-9.4633753
-0.39631537
-11.374801
-0.46478126
-13.687455
-0.54209696
-16.489888
-0.62821567
-19.892449
-0.72289432
-24.03101
-0.8245797
-29.077494
-0.92915996
-35.255104
-1.0312545
-42.84039
-1.1182522
-52.188698
-1.1766076
-63.777417
-1.1769753
-78.166738
-96.093046
-1.4023076e-05
-0.00778289
1.9293028e-06
-0.011087741
3.4578248e-05
-0.014722889
0.00011451735
-0.019299973
0.00011931291
-0.024778809
2.8656638e-05
-0.030541403
-7.8363457e-05
-0.036096651
-0.00021551849
-0.043670837
-0.00036566102
-0.051966352
-0.0005596232
-0.062537724
-0.00077325853
-0.074756379
-0.0010480433
-0.089721042
-0.0013533501
-0.10746326
-0.0017354945
-0.12885521
-0.0021699789
-0.15447413
-0.0027001409
-0.18521738
-0.0033211477
-0.22211828
-0.0040760627
-0.26635974
-0.0049692601
-0.31945285
-0.0060605859
-0.38310925
-0.007416085
-0.4593585
-0.0091490931
-0.55053605
-0.011420495
-0.65931454
-0.0145065
-0.7886211
-0.018767266
-0.94172118
-0.024647369
-1.1224356
-0.032519499
-1.3357337
-0.042663705
-1.5881892
-0.055324979
-1.8881902
-0.070712565
-2.2461552
-0.089056151
-2.6747504
-0.11065043
-3.1892297
-0.13590301
-3.8078263
-0.16536029
-4.5520856
-0.19960032
-5.4489049
-0.23921872
-6.5306993
-0.28497806
-7.835298
-0.33775422
-9.4100477
-0.39838847
-11.313455
-0.46765529
-13.617281
-0.54611896
-16.410245
-0.6338944
-19.80293
-0.73121855
-23.931351
-0.83635243
-28.970417
-0.9458927
-35.144055
-1.0548627
-42.730378
-1.152993
-52.090115
-1.2254201
-63.711906
-1.2480691
-78.151839
-96.16906
-1.442132e-05
-0.0077906483
2.9482893e-06
-0.011104217
3.8023711e-05
-0.014756493
0.00012707811
-0.01938721
0.00012418179
-0.024773724
3.6814615e-05
-0.030451801
-6.3339653e-05
-0.035993962
-0.00019255675
-0.043538093
-0.00033198428
-0.051823107
-0.00051413481
-0.06235048
-0.00071331472
-0.074551461
-0.00097277981
-0.08945429
-0.0012591351
-0.1071684
-0.0016181474
-0.12848573
-0.0020251003
-0.15405471
-0.0025220225
-0.18470544
-0.0031060747
-0.22151602
-0.0038148133
-0.26562914
-0.0046539255
-0.31858719
-0.0056950447
-0.38203632
-0.0070020029
-0.4580133
-0.0086870946
-0.54880546
-0.010935592
-0.6570124
-0.014047998
-0.78544604
-0.018417029
-0.93727997
-0.024451045
-1.1163178
-0.032491899
-1.327599
-0.042819446
-1.5777581
-0.055653177
-1.8752381
-0.071191726
-2.230482
-0.089664879
-2.6561227
-0.1113768
-3.1673375
-0.13675263
-3.7822388
-0.16636143
-4.5222337
-0.20079828
-5.4141865
-0.24066814
-6.4904918
-0.28677526
-7.7887728
-0.34002716
-9.3562563
-0.40135023
-11.251432
-0.47158037
-13.546153
-0.55138435
-16.329247
-0.64104166
-19.711498
-0.74124753
-23.828954
-0.8504248
-28.859359
-0.96596058
-35.026925
-1.0806492
-42.614714
-1.1905029
-51.980807
-1.2777973
-63.629819
-1.323502
-78.1137
-96.212898
-1.4400524e-05
-0.0077996307
4.8326459e-06
-0.011122592
4.2803412e-05
-0.014792987
0.00013981068
-0.019482422
0.00012978867
-0.024761613
4.6215541e-05
-0.030365976
-4.7204286e-05
-0.035898154
-0.00016956105
-0.043412293
-0.00029998598
-0.051689035
-0.0004731998
-0.062172299
-0.00065948271
-0.074359662
-0.00090294612
-0.089203747
-0.00117042
-0.10689266
-0.0015069996
-0.12813899
-0.0018871127
-0.15366252
-0.0023554819
-0.18422263
-0.0029034903
-0.22095043
-0.0035658482
-0.26494563
-0.0043601229
-0.31776714
-0.0053553697
-0.38101003
-0.0066156182
-0.45671562
-0.0082660991
-0.54711026
-0.010520777
-0.65470494
-0.013696882
-0.78220826
-0.018200505
-0.93270547
-0.02441376
-1.1100227
-0.032652162
-1.3192693
-0.043188964
-1.5671214
-0.056218418
-1.8620948
-0.071931493
-2.2146399
-0.090561224
-2.6373454
-0.11242404
-3.145303
-0.13796546
-3.7564955
-0.16777934
-4.4921878
-0.20247676
-5.3792193
-0.24267849
-6.4499648
-0.2892228
-7.7418221
-0.34308056
-9.3018702
-0.40522661
-11.188597
-0.47658587
-13.473905
-0.55793396
-16.24669
-0.64971419
-19.61791
-0.75307618
-23.723592
-0.86647004
-28.744206
-0.98763096
-34.904149
-1.1103308
-42.490359
-1.2297939
-51.862936
-1.3343993
-63.529649
-1.403261
-78.052151
-96.22338
-1.4959548e-05
-0.0078090699
5.7325443e-06
-0.011142382
4.6544406e-05
-0.014832273
0.00014819962
-0.019582214
0.00013097796
-0.02474237
5.2584625e-05
-0.030285278
-3.4458073e-05
-0.035808801
-0.000150298
-0.04329304
-0.00027194654
-0.051563916
-0.00043658433
-0.062002845
-0.00061153272
-0.074179342
-0.00084077341
-0.088967664
-0.001090811
-0.10663459
-0.0014063759
-0.12781367
-0.0017616135
-0.15329559
-0.0022012305
-0.18376899
-0.002715261
-0.22041939
-0.0033356879
-0.26430482
-0.0040935084
-0.31698458
-0.0050472541
-0.38002659
-0.0062672995
-0.45546005
-0.0079058022
-0.54542957
-0.010195053
-0.65236657
-0.013473808
-0.77887247
-0.018133188
-0.92798115
-0.024540269
-1.1035406
-0.033009329
-1.310717
-0.043779224
-1.5562605
-0.057030392
-1.8487391
-0.072946113
-2.1986052
-0.091760518
-2.6183942
-0.11380788
-3.1230954
-0.13955908
-3.7305547
-0.16963007
-4.461898
-0.20465683
-5.3439362
-0.24526824
-6.4090413
-0.29235192
-7.6943439
-0.34693394
-9.246771
-0.41005275
-11.124801
-0.48271825
-13.400358
-0.56581955
-16.162365
-0.6600177
-19.521878
-0.76675898
-23.615058
-0.88454636
-28.624778
-1.0118823
-34.775187
-1.1436211
-42.356601
-1.2744834
-51.734326
-1.3961372
-63.411813
-1.4881434
-77.966346
-96.200004
-1.4668762e-05
-0.0078197492
8.2698369e-06
-0.011164351
5.3290078e-05
-0.014875662
0.00015883791
-0.019685862
0.00013616245
-0.024717572
6.1453789e-05
-0.030208288
-1.943202e-05
-0.035725581
-0.00012888093
-0.043180207
-0.00024161501
-0.051447782
-0.00039727105
-0.061842401
-0.00056135632
-0.074010102
-0.00077771399
-0.088744621
-0.0010116146
-0.10639294
-0.0013074005
-0.12750842
-0.0016415359
-0.15295013
-0.0020524003
-0.18334461
-0.0025330681
-0.21992222
-0.0031192293
-0.26369888
-0.0038433146
-0.31623635
-0.0047612033
-0.37907973
-0.0059587885
-0.45422749
-0.0076081513
-0.54373876
-0.0099553133
-0.64997072
-0.013358796
-0.77541285
-0.018199864
-0.92307606
-0.02483421
-1.0968328
-0.033563527
-1.3019063
-0.044594343
-1.5451414
-0.058090853
-1.835142
-0.07423234
-2.1823498
-0.093259038
-2.5992369
-0.1155265
-3.1006756
-0.14153336
-3.7043673
-0.17191961
-4.4313035
-0.20733615
-5.3082745
-0.24844965
-6.3676272
-0.29617536
-7.6462346
-0.35160186
-9.1908381
-0.41584684
-11.059891
-0.49000003
-13.325331
-0.5750876
-16.076043
-0.67222508
-19.422934
-0.78243425
-23.503194
-0.90505852
-28.50063
-1.0388489
-34.639883
-1.1801881
-42.213653
-1.3235868
-51.592792
-1.4631383
-63.276007
-1.5800067
-77.855309
-96.141921
-1.6300739e-05
-0.0078299664
7.2199673e-06
-0.011187024
5.53176e-05
-0.014922209
0.00016249987
-0.019791248
0.00013417754
-0.02468727
6.207639e-05
-0.030133933
-1.3549444e-05
-0.035647688
-0.00011795193
-0.043072409
-0.00022378962
-0.051338702
-0.00037068862
-0.061690795
-0.00052308788
-0.073852704
-0.00072581781
-0.088535424
-0.0009436568
-0.10616761
-0.0012191991
-0.12722375
-0.0015327513
-0.15262559
-0.0019188859
-0.1829453
-0.0023699241
-0.21945517
-0.0029291043
-0.26312056
-0.0036230578
-0.31551919
-0.0045129654
-0.37816204
-0.005708127
-0.45299921
-0.0073860898
-0.54202172
-0.0098169353
-0.6474948
-0.013365773
-0.77181223
-0.018413508
-0.9179699
-0.025314672
-1.0898645
-0.034337291
-1.2928093
-0.045652405
-1.5337457
-0.05940582
-1.8212965
-0.075787025
-2.1658636
-0.095053794
-2.5798492
-0.11757898
-3.0780084
-0.14389001
-3.6778871
-0.17465906
-4.4003386
-0.210554
-5.272147
-0.25224762
-6.3256449
-0.30071776
-7.5973918
-0.35712797
-9.1339326
-0.42265589
-10.993709
-0.49847773
-13.248644
-0.58577572
-15.987506
-0.68602253
-19.320925
-0.8001056
-23.387546
-0.92798677
-28.371308
-1.0687092
-34.497746
-1.2202045
-42.060561
-1.3770223
-51.438673
-1.5351214
-63.121643
-1.6777005
-77.718407
-96.048047
-1.5675773e-05
-0.0078414657
1.0156113e-05
-0.01121199
6.3478816e-05
-0.014973868
0.00017178936
-0.019897756
0.00014064879
-0.024654228
7.2225081e-05
-0.030063327
2.1461215e-06
-0.035575394
-9.7458441e-05
-0.04296952
-0.00019654138
-0.051236481
-0.00033520051
-0.061547564
-0.00047633166
-0.073706759
-0.00066643388
-0.08833906
-0.0008694781
-0.10595731
-0.0011268113
-0.12695755
-0.0014204034
-0.1523213
-0.0017837085
-0.18256922
-0.0022108143
-0.21901246
-0.0027445385
-0.26256821
-0.0034130532
-0.31482796
-0.0042891036
-0.37725885
-0.0054920749
-0.45176348
-0.0072151935
-0.54026017
-0.0097533061
-0.64491175
-0.013473702
-0.76804081
-0.018772729
-0.91261311
-0.025981705
-1.0825899
-0.03531586