/*--------------------------------*- C++ -*----------------------------------*\
  =========                 |
  \\      /  F ield         | OpenFOAM: The Open Source CFD Toolbox
   \\    /   O peration     | Website:  https://openfoam.org
    \\  /    A nd           | Version:  8
     \\/     M anipulation  |
\*---------------------------------------------------------------------------*/
FoamFile
{
    version     2.0;
    format      ascii;
    class       pointVectorField;
    location    "0.250004";
    object      pointDisplacement;
}
// * * * * * * * * * * * * * * * * * * * * * * * * * * * * * * * * * * * * * //

dimensions      [0 1 0 0 0 0 0];

internalField   nonuniform List<vector> 
40800
(
(0.0024077074 0 0.0020909194)
(0.0024141688 0 0.0017451261)
(0.0024137885 0 0.0017465997)
(0.0024071418 0 0.0020995846)
(0.0024137622 0 0.0017456573)
(0.002407122 0 0.0020986204)
(0.0024137002 0 0.0017444118)
(0.0024070641 0 0.0020975533)
(0.0024135836 0 0.0017429586)
(0.0024069533 0 0.0020963145)
(0.0024133884 0 0.0017412716)
(0.0024067663 0 0.0020948788)
(0.0024130813 0 0.0017393269)
(0.0024064706 0 0.002093228)
(0.0024126162 0 0.0017371054)
(0.0024060212 0 0.0020913486)
(0.0024119301 0 0.0017345971)
(0.0024053565 0 0.0020892375)
(0.0024109372 0 0.0017318087)
(0.0024043922 0 0.0020869086)
(0.0024095215 0 0.0017287744)
(0.0024030146 0 0.0020844043)
(0.0024075268 0 0.0017255721)
(0.0024010705 0 0.0020818112)
(0.0024047451 0 0.0017223472)
(0.0023983552 0 0.0020792834)
(0.0024009004 0 0.0017193473)
(0.0023945978 0 0.0020770763)
(0.0023956312 0 0.001716972)
(0.0023894422 0 0.0020755946)
(0.0023884681 0 0.0017158426)
(0.0023824258 0 0.0020754599)
(0.0023788096 0 0.0017168987)
(0.0023729553 0 0.0020776015)
(0.0023658975 0 0.0017215338)
(0.0023602808 0 0.0020833881)
(0.0023487951 0 0.0017317675)
(0.0023434739 0 0.0020947864)
(0.0023263753 0 0.0017504653)
(0.0023214136 0 0.002114569)
(0.0022973256 0 0.0017816062)
(0.002292789 0 0.0021465682)
(0.0022601803 0 0.0018305243)
(0.0022561291 0 0.0021959086)
(0.0022133994 0 0.0019040326)
(0.0022098769 0 0.002269159)
(0.0021555052 0 0.002010427)
(0.0021525208 0 0.0023743301)
(0.0020852734 0 0.0021591713)
(0.0020827829 0 0.0025205676)
(0.0020019575 0 0.0023600391)
(0.0019998473 0 0.0027173476)
(0.0019055259 0 0.002621698)
(0.0019036093 0 0.002973075)
(0.0017967765 0 0.0029500116)
(0.0017948045 0 0.0032934189)
(0.0016774122 0 0.0033460824)
(0.0016751105 0 0.0036793706)
(0.0015499433 0 0.0038043756)
(0.0015470684 0 0.004125304)
(0.0014174003 0 0.0043124247)
(0.0014137932 0 0.004618728)
(0.0012830863 0 0.0048509736)
(0.0012787129 0 0.005140349)
(0.0011503619 0 0.0053960627)
(0.0011453336 0 0.0056662747)
(0.0010221231 0 0.0059230264)
(0.0010166332 0 0.0061722029)
(0.00090073051 0 0.0064090203)
(0.00089501945 0 0.006635849)
(0.00078801437 0 0.0068349964)
(0.00078232853 0 0.0070388114)
(0.00068504483 0 0.0071866221)
(0.00067959433 0 0.0073674099)
(0.00059225835 0 0.0074556571)
(0.00058719197 0 0.0076141991)
(0.00050958473 0 0.007637263)
(0.00050500423 0 0.0077747154)
(0.00043643661 0 0.0077293548)
(0.00043236407 0 0.0078472869)
(0.00037223469 0 0.0077311947)
(0.00036870107 0 0.0078312477)
(0.00031622633 0 0.0076393589)
(0.0003132116 0 0.0077231516)
(0.00026706928 0 0.0074458341)
(0.00026451726 0 0.0075144137)
(0.00022406399 0 0.0071447676)
(0.00022193501 0 0.0071996979)
(0.00018652942 0 0.0067298363)
(0.00018480593 0 0.0067726675)
(0.00015358693 0 0.0061808571)
(0.00015223428 0 0.0062128405)
(0.00012396989 0 0.0054700296)
(0.00012295344 0 0.0054920514)
(9.641152e-05 0 0.0045689372)
(9.5707229e-05 0 0.0045831953)
(6.8829653e-05 0 0.0034249178)
(6.8416421e-05 0 0.0034336107)
(3.8049846e-05 0 0.0019290306)
(3.7909377e-05 0 0.0019338295)
(0 0 0)
(0 0 0)
(0.0024191629 0 0.0014067501)
(0.0024187919 0 0.0014079664)
(0.0024187654 0 0.0014066885)
(0.0024187002 0 0.0014051914)
(0.002418579 0 0.0014034355)
(0.0024183773 0 0.0014013875)
(0.0024180613 0 0.0013990125)
(0.0024175839 0 0.0013962782)
(0.0024168808 0 0.0013931601)
(0.0024158647 0 0.0013896482)
(0.0024144175 0 0.0013857582)
(0.0024123804 0 0.0013815479)
(0.0024095419 0 0.0013771412)
(0.002405622 0 0.0013727633)
(0.0024002541 0 0.0013687912)
(0.0023929627 0 0.0013658252)
(0.0023831395 0 0.0013647901)
(0.0023700191 0 0.001367075)
(0.0023526581 0 0.0013747204)
(0.0023299247 0 0.0013906522)
(0.0023005053 0 0.0014189751)
(0.0022629396 0 0.0014652166)
(0.0022157025 0 0.0015363965)
(0.0021573495 0 0.0016410766)
(0.0020867075 0 0.0017890593)
(0.002003097 0 0.0019904574)
(0.0019065551 0 0.0022542897)
(0.0017979416 0 0.0025867424)
(0.0016789859 0 0.0029891789)
(0.001552168 0 0.0034563387)
(0.0014204394 0 0.0039759372)
(0.0012869839 0 0.0045288771)
(0.0011550182 0 0.0050912366)
(0.0010273521 0 0.0056380262)
(0.00090630117 0 0.0061458629)
(0.0007936717 0 0.0065950451)
(0.00069056586 0 0.0069705489)
(0.0005974688 0 0.0072632716)
(0.00051436391 0 0.00746781)
(0.00044073049 0 0.0075816446)
(0.00037601045 0 0.0076037066)
(0.00031946742 0 0.0075306152)
(0.00026983699 0 0.0073547167)
(0.00022638707 0 0.0070699381)
(0.00018842645 0 0.0066694587)
(0.00015507543 0 0.0061336984)
(0.00012508789 0 0.0054350574)
(9.7173003e-05 0 0.0045442072)
(6.9256555e-05 0 0.0034079317)
(3.8165097e-05 0 0.0019188499)
(0 0 0)
(0.0024227222 0 0.0010756371)
(0.0024223606 0 0.0010767112)
(0.0024223301 0 0.0010752042)
(0.0024222595 0 0.0010734347)
(0.0024221311 0 0.0010713571)
(0.0024219198 0 0.0010689277)
(0.0024215909 0 0.0010661014)
(0.0024210964 0 0.0010628339)
(0.0024203707 0 0.001059087)
(0.0024193246 0 0.0010548347)
(0.0024178377 0 0.0010500746)
(0.0024157483 0 0.0010448446)
(0.0024128411 0 0.0010392464)
(0.0024088315 0 0.0010334821)
(0.0024033471 0 0.0010279049)
(0.0023959058 0 0.0010230932)
(0.0023858919 0 0.0010199553)
(0.0023725323 0 0.0010198779)
(0.0023548769 0 0.0010249306)
(0.0023317898 0 0.0010381021)
(0.002301958 0 0.0010636503)
(0.0022639265 0 0.0011073333)
(0.0022161868 0 0.0011763426)
(0.0021573326 0 0.0012794835)
(0.0020862488 0 0.0014269042)
(0.0020023288 0 0.0016290211)
(0.001905686 0 0.0018951571)
(0.0017972462 0 0.0022317688)
(0.0016787676 0 0.0026404305)
(0.0015526997 0 0.0031161072)
(0.0014219103 0 0.0036466808)
(0.0012894577 0 0.0042132178)
(0.0011584108 0 0.0047918613)
(0.0010314828 0 0.0053573821)
(0.0009109353 0 0.0058859475)
(0.00079854656 0 0.0063572782)
(0.00069544343 0 0.0067557152)
(0.00060215705 0 0.0070713401)
(0.00051872396 0 0.0072981867)
(0.00044468892 0 0.0074332888)
(0.00037952 0 0.0074752367)
(0.00032250051 0 0.0074206514)
(0.00027243879 0 0.0072621839)
(0.00022857989 0 0.0069935651)
(0.00019022364 0 0.006607515)
(0.00015649017 0 0.006084971)
(0.00012615222 0 0.0053985403)
(9.7898464e-05 0 0.0045180757)
(6.9662409e-05 0 0.0033898871)
(3.8274977e-05 0 0.001908147)
(0 0 0)
(0.0024248918 0 0.00075163653)
(0.002424538 0 0.00075257353)
(0.0024245014 0 0.00075084453)
(0.0024244229 0 0.00074881061)
(0.0024242843 0 0.00074641784)
(0.0024240598 0 0.00074361327)
(0.0024237137 0 0.00074034093)
(0.002423197 0 0.00073654427)
(0.0024224424 0 0.00073217084)
(0.0024213588 0 0.00072717877)
(0.0024198232 0 0.00072154779)
(0.0024176706 0 0.00071529559)
(0.0024146817 0 0.00070850198)
(0.0024105667 0 0.00070134516)
(0.0024049469 0 0.00069415371)
(0.0023973328 0 0.00068748239)
(0.0023871009 0 0.00068222088)
(0.0023734704 0 0.00067975286)
(0.0023554846 0 0.00068219942)
(0.0023320044 0 0.00069259947)
(0.0023017194 0 0.00071540798)
(0.0022631793 0 0.00075669135)
(0.0022148915 0 0.0008237161)
(0.0021554956 0 0.00092550227)
(0.0020839416 0 0.0010725841)
(0.0019997006 0 0.0012756322)
(0.0019029691 0 0.0015442286)
(0.0017947426 0 0.0018850506)
(0.0016768094 0 0.0022998337)
(0.0015515873 0 0.0027837246)
(0.0014218556 0 0.0033247531)
(0.0012905421 0 0.003904151)
(0.0011605641 0 0.0044981472)
(0.0010345301 0 0.0050813482)
(0.00091463965 0 0.0056295558)
(0.00080263916 0 0.0061219878)
(0.00069967335 0 0.0065424082)
(0.00060631636 0 0.0068801304)
(0.00052265687 0 0.0071286342)
(0.00044830395 0 0.0072844964)
(0.00038275585 0 0.0073459621)
(0.00032531877 0 0.0073096156)
(0.00027486924 0 0.0071683605)
(0.00023063789 0 0.0069157502)
(0.00019191722 0 0.0065440823)
(0.00015782809 0 0.0060347356)
(0.0001271606 0 0.0053605275)
(9.8586298e-05 0 0.0044905791)
(7.0046201e-05 0 0.0033708033)
(3.8378814e-05 0 0.001896925)
(0 0 0)
(0.0024257143 0 0.00043460029)
(0.0024253649 0 0.00043540092)
(0.0024253203 0 0.00043344979)
(0.0024252315 0 0.00043115143)
(0.0024250796 0 0.00042844421)
(0.0024248382 0 0.00042526584)
(0.0024244706 0 0.00042154965)
(0.0024239262 0 0.0004172267)
(0.0024231362 0 0.00041223016)
(0.0024220073 0 0.00040650181)
(0.0024204135 0 0.00040000286)
(0.0024181864 0 0.00039273031)
(0.002415102 0 0.00038474112)
(0.0024108648 0 0.0003761887)
(0.0024050894 0 0.00036737503)
(0.0023972783 0 0.00035882753)
(0.0023867995 0 0.00035141087)
(0.002372865 0 0.0003464928)
(0.0023545118 0 0.00034633167)
(0.0023305996 0 0.00035415541)
(0.0022998246 0 0.00037445566)
(0.0022607334 0 0.00041335752)
(0.0022118491 0 0.00047840257)
(0.0021518712 0 0.00057902151)
(0.0020798205 0 0.0007260221)
(0.0019952493 0 0.00093024288)
(0.0018984438 0 0.001201485)
(0.0017904725 0 0.0015465995)
(0.0016731538 0 0.0019674332)
(0.001548872 0 0.0024592742)
(0.0014203127 0 0.0030102803)
(0.0012902679 0 0.0036018491)
(0.0011615012 0 0.0042103122)
(0.0010365087 0 0.0048101793)
(0.00091742151 0 0.005376966)
(0.00080595034 0 0.0058894617)
(0.00070325206 0 0.0063309114)
(0.00060994033 0 0.0066899078)
(0.00052615494 0 0.0069593915)
(0.00045156766 0 0.0071354764)
(0.00038571044 0 0.0072160593)
(0.00032791519 0 0.0071976546)
(0.00027712264 0 0.0070733689)
(0.0002325563 0 0.0068365929)
(0.00019350321 0 0.006479235)
(0.00015908591 0 0.0059830494)
(0.00012811063 0 0.005321064)
(9.9234726e-05 0 0.0044617487)
(7.0406805e-05 0 0.0033506965)
(3.8475865e-05 0 0.0018851883)
(0 0 0)
(0.0024252227 0 0.00012438406)
(0.002424878 0 0.00012504925)
(0.0024248233 0 0.00012287616)
(0.0024247217 0 0.00012031362)
(0.0024245537 0 0.00011729232)
(0.0024242918 0 0.00011374076)
(0.0024238983 0 0.00010958164)
(0.002423321 0 0.00010473361)
(0.0024224893 0 9.9115515e-05)
(0.0024213072 0 9.2652652e-05)
(0.0024196458 0 8.5287394e-05)
(0.0024173325 0 7.6995606e-05)
(0.0024141384 0 6.7810612e-05)
(0.0024097617 0 5.7859647e-05)
(0.0024038094 0 4.7415718e-05)
(0.0023957751 0 3.69738e-05)
(0.0023850176 0 2.7368943e-05)
(0.0023707469 0 2.0075147e-05)
(0.002352 0 1.7507184e-05)
(0.0023276257 0 2.3079209e-05)
(0.0022963115 0 4.1184398e-05)
(0.002256613 0 7.7713553e-05)
(0.0022070899 0 0.00014072526)
(0.0021464954 0 0.00024014677)
(0.002073921 0 0.00038714814)
(0.0019890126 0 0.00059281027)
(0.0018921509 0 0.00086690837)
(0.0017844794 0 0.0012164243)
(0.0016678457 0 0.0016432653)
(0.0015445978 0 0.0021428257)
(0.0014173219 0 0.0027033706)
(0.0012886697 0 0.0033064625)
(0.0011612485 0 0.00392855)
(0.0010374367 0 0.0045441059)
(0.00091929117 0 0.0051284343)
(0.00080848389 0 0.0056599681)
(0.00070617848 0 0.0061214928)
(0.00061302466 0 0.0065009261)
(0.00052921196 0 0.0067906905)
(0.00045447328 0 0.0069864331)
(0.00038837697 0 0.0070857026)
(0.00033028332 0 0.0070849143)
(0.00027919361 0 0.0069773317)
(0.00023433056 0 0.0067561931)
(0.00019497778 0 0.0064130486)
(0.00016026047 0 0.0059299703)
(0.00012899992 0 0.0052801955)
(9.9842046e-05 0 0.0044316184)
(7.0743178e-05 0 0.0033295863)
(3.8565465e-05 0 0.0018729415)
(0 0 0)
(0.0024234542 0 -0.0001791527)
(0.0024231137 0 -0.00017862223)
(0.0024230468 0 -0.00018101644)
(0.00242293 0 -0.000183842)
(0.0024227429 0 -0.00018717612)
(0.002422457 0 -0.00019109968)
(0.0024220333 0 -0.00019570087)
(0.0024214178 0 -0.00020107343)
(0.0024205379 0 -0.00020731277)
(0.0024192948 0 -0.00021451)
(0.0024175561 0 -0.00022274146)
(0.0024151448 0 -0.00023205247)
(0.0024118263 0 -0.00024243361)
(0.002407292 0 -0.00025378461)
(0.0024011403 0 -0.00026586364)
(0.0023928552 0 -0.0002782174)
(0.0023817927 0 -0.00028993412)
(0.0023671648 0 -0.00029931787)
(0.0023479977 0 -0.00030398355)
(0.0023231208 0 -0.00030059769)
(0.0022912112 0 -0.00028467388)
(0.0022508491 0 -0.00025023781)
(0.002200643 0 -0.00018896817)
(0.0021393959 0 -9.0772845e-05)
(0.0020662766 0 5.6095774e-05)
(0.0019810294 0 0.00026329688)
(0.0018841329 0 0.00054048166)
(0.0017768089 0 0.00089453021)
(0.0016609326 0 0.0013273582)
(0.0015388116 0 0.0018344362)
(0.0014129268 0 0.0024041144)
(0.0012857852 0 0.0030181206)
(0.0011598359 0 0.0036530309)
(0.0010373353 0 0.0042833347)
(0.00092026216 0 0.004884194)
(0.00081024642 0 0.005433755)
(0.00070845386 0 0.0059144044)
(0.00061556688 0 0.0063134276)
(0.0005318233 0 0.0066227545)
(0.00045701517 0 0.0068375654)
(0.00039074957 0 0.0069550632)
(0.0003324173 0 0.0069715389)
(0.00028107716 0 0.0068803706)
(0.00023595638 0 0.006674651)
(0.00019633726 0 0.0063455994)
(0.00016134869 0 0.0058755572)
(0.00012982613 0 0.0052379678)
(0.00010040654 0 0.0044002216)
(7.1054203e-05 0 0.0033074911)
(3.8646885e-05 0 0.0018601899)
(0 0 0)
(0.002420448 0 -0.00047614924)
(0.0024201105 0 -0.0004757531)
(0.0024200294 0 -0.00047836929)
(0.0024198949 0 -0.00048145888)
(0.0024196856 0 -0.00048510682)
(0.002419372 0 -0.00048940301)
(0.0024189134 0 -0.00049444635)
(0.0024182542 0 -0.00050034293)
(0.0024173193 0 -0.00050720255)
(0.0024160068 0 -0.00051513269)
(0.0024141806 0 -0.00052422846)
(0.0024116587 0 -0.00053455644)
(0.0024082005 0 -0.00054613067)
(0.0024034897 0 -0.00055887596)
(0.0023971151 0 -0.00057257413)
(0.0023885558 0 -0.00058678718)
(0.0023771722 0 -0.00060042857)
(0.0023621646 0 -0.00061173717)
(0.0023425343 0 -0.00061845517)
(0.002317102 0 -0.00061728483)
(0.0022845485 0 -0.0006035625)
(0.0022434769 0 -0.00057099082)
(0.0021925378 0 -0.00051113887)
(0.0021305995 0 -0.0004137878)
(0.0020569152 0 -0.00026700846)
(0.0019713329 0 -5.8337196e-05)
(0.0018744331 0 0.00022219076)
(0.0017675085 0 0.00058092226)
(0.0016524639 0 0.0010197344)
(0.0015315625 0 0.0015341519)
(0.0014071736 0 0.0021125873)
(0.0012816549 0 0.0027369341)
(0.001157296 0 0.0033839043)
(0.0010362287 0 0.0040280501)
(0.00092035052 0 0.0046444581)
(0.0008112469 0 0.0052110524)
(0.00071008162 0 0.0057098827)
(0.00061756647 0 0.0061276417)
(0.00053398574 0 0.0064557983)
(0.00045918881 0 0.0066890667)
(0.00039282314 0 0.0068243091)
(0.00033431188 0 0.0068576712)
(0.00028276866 0 0.0067826065)
(0.00023742972 0 0.0065920664)
(0.00019757815 0 0.0062769646)
(0.00016234758 0 0.0058198698)
(0.00013058695 0 0.0051944276)
(0.00010092648 0 0.0043675918)
(7.1338806e-05 0 0.0032844315)
(3.8719455e-05 0 0.0018469395)
(0 0 0)
(0.0024162425 0 -0.00076674077)
(0.0024159053 0 -0.00076647805)
(0.0024158078 0 -0.00076931601)
(0.0024156527 0 -0.00077266951)
(0.002415418 0 -0.00077663124)
(0.0024150726 0 -0.00078130016)
(0.0024145744 0 -0.00078678558)
(0.0024138657 0 -0.00079320601)
(0.0024128686 0 -0.0008006856)
(0.0024114781 0 -0.00080934826)
(0.0024095538 0 -0.00081930804)
(0.0024069085 0 -0.00083065312)
(0.0024032949 0 -0.00084342179)
(0.0023983885 0 -0.00085756539)
(0.0023917691 0 -0.00087288905)
(0.0023829169 0 -0.0008888305)
(0.0023711918 0 -0.00090423992)
(0.0023557691 0 -0.00091749091)
(0.0023356308 0 -0.00092630715)
(0.0023095956 0 -0.00092729466)
(0.0022763489 0 -0.00091566144)
(0.0022345183 0 -0.00088487209)
(0.0021828015 0 -0.00082627226)
(0.0021201365 0 -0.00072934192)
(0.0020458699 0 -0.00058222533)
(0.001959965 0 -0.00037195889)
(0.0018630978 0 -8.7977658e-05)
(0.0017566279 0 0.00027560265)
(0.0016424918 0 0.00072040828)
(0.0015229027 0 0.0012420071)
(0.001400111 0 0.0018288486)
(0.0012763218 0 0.0024629944)
(0.0011536642 0 0.0031212972)
(0.0010341439 0 0.0037784128)
(0.00091957665 0 0.0044095402)
(0.00081149863 0 0.0049922154)
(0.0007110675 0 0.0055081485)
(0.00061902468 0 0.0059437849)
(0.00053569761 0 0.0062900263)
(0.00046099087 0 0.006541123)
(0.0003945935 0 0.0066936037)
(0.00033596251 0 0.0067434512)
(0.00028426395 0 0.0066841587)
(0.00023874683 0 0.0065085389)
(0.00019869714 0 0.0062072216)
(0.00016325428 0 0.0057629681)
(0.00013128013 0 0.0051496218)
(0.00010140017 0 0.0043337634)
(7.1595865e-05 0 0.0032604276)
(3.8782452e-05 0 0.0018331971)
(0 0 0)
(0.002410869 0 -0.0010510594)
(0.0024105309 0 -0.0010509293)
(0.0024104147 0 -0.0010539888)
(0.0024102366 0 -0.0010576061)
(0.0024099732 0 -0.0010618814)
(0.0024095922 0 -0.0010669227)
(0.0024090495 0 -0.0010728498)
(0.0024082854 0 -0.0010797935)
(0.002407219 0 -0.0010878924)
(0.0024057417 0 -0.0010972871)
(0.0024037086 0 -0.001108111)
(0.0024009264 0 -0.0011204747)
(0.0023971406 0 -0.0011344433)
(0.0023920179 0 -0.0011500023)
(0.0023851357 0 -0.0011669326)
(0.0023759766 0 -0.0011845023)
(0.0023638821 0 -0.0012016247)
(0.0023480039 0 -0.0012168056)
(0.0023273142 0 -0.0012276754)
(0.0023006275 0 -0.0012307584)
(0.0022666367 0 -0.0012211225)
(0.0022239973 0 -0.0011920131)
(0.0021714608 0 -0.0011344795)
(0.0021080384 0 -0.0010376879)
(0.0020331854 0 -0.0008896037)
(0.0019469708 0 -0.0006774264)
(0.0018501695 0 -0.00039003527)
(0.0017442186 0 -2.1428479e-05)
(0.0016310702 0 0.00042938725)
(0.0015128864 0 0.00095802512)
(0.0013917904 0 0.0015529424)
(0.0012698317 0 0.0021963737)
(0.0011489827 0 0.0028654839)
(0.0010311193 0 0.0035349186)
(0.00091796892 0 0.0041799591)
(0.00081101855 0 0.0047777689)
(0.00071142022 0 0.0053096885)
(0.00061994531 0 0.0057621992)
(0.00053695863 0 0.0061256351)
(0.00046241907 0 0.0063939137)
(0.00039605727 0 0.0065631062)
(0.0003373652 0 0.0066290164)
(0.00028555923 0 0.0065851454)
(0.00023990421 0 0.0064241675)
(0.00019969106 0 0.0061364482)
(0.00016406603 0 0.0057049129)
(0.00013190344 0 0.0051035981)
(0.00010182595 0 0.0042987723)
(7.1824279e-05 0 0.0032355009)
(3.8835174e-05 0 0.001818969)
(0 0 0)
(0.0024043581 0 -0.0013292342)
(0.0024040208 0 -0.0013292362)
(0.0024038838 0 -0.0013325169)
(0.0024036798 0 -0.0013363973)
(0.0024033844 0 -0.0013409852)
(0.0024029637 0 -0.0013463978)
(0.0024023717 0 -0.0013527655)
(0.0024015462 0 -0.0013602315)
(0.0024004032 0 -0.0013689485)
(0.0023988301 0 -0.0013790737)
(0.0023966769 0 -0.0013907592)
(0.002393744 0 -0.0014041366)
(0.0023897687 0 -0.0014192946)
(0.0023844113 0 -0.0014362452)
(0.0023772529 0 -0.0014546735)
(0.0023677683 0 -0.001473829)
(0.0023552711 0 -0.0014927096)
(0.0023388965 0 -0.0015098011)
(0.0023176097 0 -0.0015226884)
(0.0022902214 0 -0.0015278103)
(0.0022554343 0 -0.001520087)
(0.0022119373 0 -0.0014925506)
(0.0021585431 0 -0.0014358785)
(0.0020943418 0 -0.0013389185)
(0.0020188986 0 -0.0011893655)
(0.0019323923 0 -0.00097477057)
(0.0018357015 0 -0.00068382523)
(0.0017303348 0 -0.00031017466)
(0.0016182557 0 0.00014666953)
(0.00150157 0 0.0006822161)
(0.001382272 0 0.0012850663)
(0.0012622488 0 0.0019375192)
(0.0011433096 0 0.0026169983)
(0.0010272001 0 0.0032981455)
(0.00091555564 0 0.0039560572)
(0.00080982365 0 0.0045679778)
(0.00071115129 0 0.005115008)
(0.00062033308 0 0.005583343)
(0.00053776975 0 0.0059629355)
(0.00046347233 0 0.0062476109)
(0.00039721201 0 0.0064329697)
(0.00033851673 0 0.0065145009)
(0.00028665119 0 0.0064856822)
(0.00024089872 0 0.0063390499)
(0.00020055702 0 0.0060647223)
(0.00016478021 0 0.0056457655)
(0.00013245476 0 0.0050564047)
(0.00010220215 0 0.0042626538)
(7.2022926e-05 0 0.0032096735)
(3.8876927e-05 0 0.0018042643)
(0 0 0)
(0.0023967513 0 -0.0016013928)
(0.0023964088 0 -0.0016015258)
(0.0023962485 0 -0.0016050278)
(0.0023960159 0 -0.001609171)
(0.002395685 0 -0.0016140713)
(0.0023952205 0 -0.0016198546)
(0.0023945741 0 -0.0016266622)
(0.0023936809 0 -0.0016346495)
(0.0023924536 0 -0.0016439834)
(0.0023907755 0 -0.0016548371)
(0.0023884908 0 -0.001667381)
(0.0023853934 0 -0.0016817673)
(0.0023812119 0 -0.0016981069)
(0.002375605 0 -0.0017163836)
(0.0023681546 0 -0.0017362266)
(0.0023583165 0 -0.0017569611)
(0.0023453809 0 -0.0017776156)
(0.0023284703 0 -0.001796605)
(0.0023065401 0 -0.0018114776)
(0.0022783985 0 -0.0018185862)
(0.0022427625 0 -0.0018126865)
(0.0021983688 0 -0.0017864169)
(0.0021440927 0 -0.0017301818)
(0.0020790967 0 -0.0016327298)
(0.0020030547 0 -0.0014815445)
(0.0019162825 0 -0.0012640222)
(0.0018197506 0 -0.00096918498)
(0.0017150277 0 -0.00059063622)
(0.0016041062 0 -0.00012775366)
(0.0014890241 0 0.00041476885)
(0.0013716384 0 0.0010256982)
(0.0012536494 0 0.0016870356)
(0.0011366988 0 0.0023761734)
(0.0010224167 0 0.0030680467)
(0.00091235758 0 0.0037377673)
(0.00080792956 0 0.0043627753)
(0.00071027112 0 0.0049240702)
(0.00062019329 0 0.0054074009)
(0.000538133 0 0.005802326)
(0.00046415023 0 0.0061024838)
(0.00039805602 0 0.0063033432)
(0.00033941441 0 0.0064000348)
(0.00028753692 0 0.0063858826)
(0.00024172748 0 0.0062532828)
(0.00020129225 0 0.0059921215)
(0.0001653943 0 0.0055855873)
(0.00013293197 0 0.0050080902)
(0.00010252715 0 0.004225445)
(7.2190684e-05 0 0.0031829683)
(3.8906991e-05 0 0.0017890903)
(0 0 0)
(0.00238807 0 -0.0018676583)
(0.0023877257 0 -0.0018679218)
(0.0023875398 0 -0.0018716444)
(0.0023872757 0 -0.0018760501)
(0.002386906 0 -0.0018812624)
(0.0023863934 0 -0.0018874167)
(0.0023856875 0 -0.0018946646)
(0.0023847204 0 -0.0019031736)
(0.0023834012 0 -0.0019131242)
(0.0023816084 0 -0.0019247055)
(0.0023791805 0 -0.0019381056)
(0.0023759039 0 -0.001953497)
(0.0023715006 0 -0.0019710182)
(0.0023656301 0 -0.0019905818)
(0.002357867 0 -0.0020118137)
(0.0023476456 0 -0.002034118)
(0.0023342368 0 -0.0020565034)
(0.0023167488 0 -0.0020773531)
(0.0022941263 0 -0.0020941751)
(0.0022651787 0 -0.0021032195)
(0.0022286563 0 -0.0020988776)
(0.0021833472 0 -0.002073333)
(0.0021281654 0 -0.0020170388)
(0.0020623509 0 -0.0019187545)
(0.0019857061 0 -0.0017657926)
(0.0018986905 0 -0.0015451855)
(0.0018023587 0 -0.0012463036)
(0.0016983503 0 -0.00086283983)
(0.0015886985 0 -0.00039369174)
(0.0014753473 0 0.00015619835)
(0.0013599734 0 0.00077518845)
(0.0012440858 0 0.0014448894)
(0.001129185 0 0.0021428517)
(0.0010167958 0 0.00284442)
(0.00090839796 0 0.0035250077)
(0.00080535407 0 0.0041621467)
(0.00070879101 0 0.004736767)
(0.00061953369 0 0.0052343113)
(0.00053805231 0 0.0056439483)
(0.00046445326 0 0.0059587999)
(0.00039858799 0 0.0061743694)
(0.00034005629 0 0.0062857444)
(0.00028821406 0 0.0062858575)
(0.00024238795 0 0.0061669613)
(0.00020189425 0 0.0059187231)
(0.00016590594 0 0.0055244401)
(0.00013333308 0 0.0049587039)
(0.00010279931 0 0.0041871824)
(7.2326435e-05 0 0.0031554091)
(3.8924638e-05 0 0.001773456)
(0 0 0)
(0.0023783538 0 -0.0021281529)
(0.0023780045 0 -0.0021285472)
(0.0023777907 0 -0.0021324928)
(0.0023774921 0 -0.0021371634)
(0.0023770798 0 -0.00214269)
(0.0023765146 0 -0.0021492167)
(0.0023757437 0 -0.002156905)
(0.002374696 0 -0.0021659344)
(0.0023732768 0 -0.002176499)
(0.0023713594 0 -0.0021888031)
(0.0023687761 0 -0.0022030517)
(0.0023653052 0 -0.0022194344)
(0.0023606651 0 -0.0022381059)
(0.0023545158 0 -0.0022589397)
(0.0023464177 0 -0.0022815591)
(0.002335782 0 -0.0023054109)
(0.0023218632 0 -0.0023294921)
(0.0023037538 0 -0.0023521621)
(0.0022803878 0 -0.0023709014)
(0.0022505953 0 -0.0023816817)
(0.0022131689 0 -0.0023784299)
(0.0021669113 0 -0.0023533121)
(0.0021107779 0 -0.0022967894)
(0.0020441215 0 -0.0021973525)
(0.0019668893 0 -0.0020421203)
(0.0018796569 0 -0.0018182439)
(0.0017835781 0 -0.0015151978)
(0.0016803921 0 -0.0011264374)
(0.001572144 0 -0.00065058681)
(0.0014606353 0 -9.3107336e-05)
(0.0013473334 0 0.00053347104)
(0.0012335974 0 0.0012108128)
(0.0011208042 0 0.0019168395)
(0.0010103713 0 0.0026272648)
(0.00090370344 0 0.0033178206)
(0.00080211698 0 0.0039661711)
(0.00070672468 0 0.0045532063)
(0.00061836291 0 0.005064109)
(0.00053753209 0 0.0054877521)
(0.00046438299 0 0.0058166881)
(0.00039880771 0 0.0060462777)
(0.00034044096 0 0.0061717522)
(0.00028868057 0 0.0061857151)
(0.00024287787 0 0.0060801793)
(0.00020236067 0 0.0058446041)
(0.00016631286 0 0.0054623859)
(0.0001336561 0 0.0049082955)
(0.00010301706 0 0.0041479044)
(7.2429046e-05 0 0.0031270204)
(3.8929168e-05 0 0.0017573715)
(0 0 0)
(0.0023676342 0 -0.0023829947)
(0.002367276 0 -0.0023835189)
(0.0023670315 0 -0.0023876866)
(0.0023666953 0 -0.0023926211)
(0.0023662366 0 -0.0023984613)
(0.0023656142 0 -0.0024053599)
(0.0023647726 0 -0.0024134889)
(0.0023636374 0 -0.0024230394)
(0.0023621094 0 -0.0024342196)
(0.002360057 0 -0.0024472497)
(0.0023573054 0 -0.0024623534)
(0.0023536248 0 -0.0024797424)
(0.0023487325 0 -0.0024995307)
(0.0023422875 0 -0.0025215855)
(0.0023338305 0 -0.0025455769)
(0.0023227498 0 -0.00257095)
(0.0023082832 0 -0.0025966901)
(0.0022895066 0 -0.0026211226)
(0.0022653564 0 -0.0026416339)
(0.0022346976 0 -0.0026537904)
(0.0021963303 0 -0.0026513748)
(0.0021490617 0 -0.0026266965)
(0.0020919351 0 -0.0025698228)
(0.0020244289 0 -0.0024689302)
(0.0019466337 0 -0.0023108966)
(0.0018592344 0 -0.0020832083)
(0.0017634924 0 -0.0017755897)
(0.0016612643 0 -0.0013809251)
(0.0015545481 0 -0.00089800014)
(0.0014449504 0 -0.00033323572)
(0.0013337658 0 0.00030034353)
(0.0012222311 0 0.00098469598)
(0.0011115979 0 0.0016980718)
(0.001003178 0 0.0024165599)
(0.00089830195 0 0.0031162284)
(0.00079823941 0 0.0037749089)
(0.00070408724 0 0.0043734787)
(0.00061669088 0 0.0048969045)
(0.00053657823 0 0.0053337818)
(0.00046394285 0 0.0056762565)
(0.00039871628 0 0.0059192965)
(0.00034056721 0 0.0060581761)
(0.00028893493 0 0.00608556)
(0.00024319531 0 0.0059930284)
(0.00020268942 0 0.0057698406)
(0.00016661296 0 0.0053994866)
(0.00013389915 0 0.0048569153)
(0.00010317882 0 0.0041076491)
(7.2497389e-05 0 0.0030978273)
(3.8919833e-05 0 0.0017408462)
(0 0 0)
(0.0023559314 0 -0.0026323002)
(0.0023555668 0 -0.0026329534)
(0.0023552891 0 -0.002637343)
(0.0023549121 0 -0.0026425415)
(0.0023544032 0 -0.002648695)
(0.0023537189 0 -0.0026559653)
(0.0023528008 0 -0.0026645347)
(0.0023515709 0 -0.0026746065)
(0.0023499255 0 -0.0026864025)
(0.0023477269 0 -0.0027001593)
(0.0023447931 0 -0.0027161199)
(0.0023408883 0 -0.0027345249)
(0.0023357323 0 -0.0027554152)
(0.0023289743 0 -0.0027786513)
(0.0023201314 0 -0.002803984)
(0.0023085728 0 -0.0028308474)
(0.0022935191 0 -0.0028582092)
(0.0022740318 0 -0.0028843685)
(0.002249069 0 -0.0029063776)
(0.0022175113 0 -0.0029196201)
(0.0021781398 0 -0.0029180441)
(0.0021298056 0 -0.0028937334)
(0.0020716627 0 -0.002836221)
(0.0020033183 0 -0.0027333748)
(0.0019249895 0 -0.0025721495)
(0.0018374867 0 -0.0023401046)
(0.0017421936 0 -0.0020272503)
(0.001641061 0 -0.0016261563)
(0.0015359796 0 -0.0011360242)
(0.0014283413 0 -0.0005644337)
(0.0013193211 0 7.5639953e-05)
(0.0012100342 0 0.00076641456)
(0.0011016079 0 0.0014864675)
(0.00099525144 0 0.0022122677)
(0.00089222214 0 0.0029202362)
(0.0007937435 0 0.0035884028)
(0.00070089472 0 0.0041976595)
(0.00061452857 0 0.0047327947)
(0.00053519795 0 0.0051821465)
(0.0004631368 0 0.0055375541)
(0.00039831447 0 0.0057934618)
(0.00034043432 0 0.0059451269)
(0.00028897604 0 0.005985494)
(0.00024333865 0 0.0059055987)
(0.00020287859 0 0.0056945083)
(0.00016680427 0 0.0053358046)
(0.0001340604 0 0.0048046139)
(0.00010328305 0 0.0040664556)
(7.2530327e-05 0 0.0030678557)
(3.8895938e-05 0 0.0017238917)
(0 0 0)
(0.0023432804 0 -0.0028761825)
(0.0023429045 0 -0.0028769642)
(0.002342591 0 -0.0028815759)
(0.0023421699 0 -0.002887038)
(0.0023416069 0 -0.0028935045)
(0.0023408559 0 -0.0029011456)
(0.0023398554 0 -0.0029101539)
(0.0023385237 0 -0.002920744)
(0.0023367521 0 -0.0029331509)
(0.0023343968 0 -0.002947625)
(0.0023312677 0 -0.0029644227)
(0.0023271267 0 -0.0029837982)
(0.0023216938 0 -0.0030057738)
(0.0023146014 0 -0.0030302076)
(0.0023053435 0 -0.0030568748)
(0.0022932726 0 -0.0030852054)
(0.0022775903 0 -0.0031141471)
(0.0022573564 0 -0.0031419367)
(0.0022315526 0 -0.0031652543)
(0.0021990434 0 -0.0031794682)
(0.0021586042 0 -0.0031786523)
(0.0021091746 0 -0.0031543542)
(0.002050017 0 -0.0030957239)
(0.0019808579 0 -0.0029903751)
(0.0019020285 0 -0.0028255607)
(0.0018144761 0 -0.0025889675)
(0.0017197682 0 -0.0022701132)
(0.0016198716 0 -0.0018620307)
(0.0015164907 0 -0.0013649475)
(0.0014108591 0 -0.00078691459)
(0.0013040495 0 -0.00014081549)
(0.0011970535 0 0.00055583273)
(0.0010908761 0 0.0012819322)
(0.00098662717 0 0.0020143357)
(0.00088549321 0 0.0027298333)
(0.00078865202 0 0.0034066806)
(0.0006971641 0 0.0040258083)
(0.00061188787 0 0.0045718627)
(0.00053339893 0 0.005032944)
(0.00046196901 0 0.005400617)
(0.00039760448 0 0.0056688574)
(0.00034004336 0 0.0058327888)
(0.00028880326 0 0.0058856152)
(0.00024330659 0 0.0058179776)
(0.0002029265 0 0.0056186816)
(0.00016688496 0 0.0052714017)
(0.00013413812 0 0.0047514424)
(0.00010332826 0 0.0040243645)
(7.2526728e-05 0 0.0030371324)
(3.8856699e-05 0 0.0017065178)
(0 0 0)
(0.0023297016 0 -0.0031147523)
(0.002329316 0 -0.0031156623)
(0.002328964 0 -0.0031204962)
(0.0023284955 0 -0.0031262223)
(0.0023278743 0 -0.0031330019)
(0.0023270517 0 -0.0031410143)
(0.0023259629 0 -0.0031504621)
(0.002324522 0 -0.0031615719)
(0.0023226151 0 -0.0031745923)
(0.0023200916 0 -0.0031897896)
(0.0023167536 0 -0.003207439)
(0.0023123626 0 -0.0032277536)
(0.0023066368 0 -0.0032507677)
(0.0022991879 0 -0.0032763858)
(0.0022894871 0 -0.0033043671)
(0.0022768691 0 -0.0033341376)
(0.0022605179 0 -0.0033646336)
(0.0022395084 0 -0.003393834)
(0.0022128263 0 -0.0034183082)
(0.0021793051 0 -0.0034334722)
(0.0021377559 0 -0.0034331413)
(0.0020872257 0 -0.0034083247)
(0.0020270611 0 -0.0033480285)
(0.0019570909 0 -0.0032398948)
(0.001877798 0 -0.0030710915)
(0.0017902886 0 -0.0028295209)
(0.0016963133 0 -0.0025040922)
(0.0015977633 0 -0.002088711)
(0.0014961291 0 -0.0015850156)
(0.0013925549 0 -0.0010008975)
(0.001288001 0 -0.00034920727)
(0.0011833358 0 0.00035280404)
(0.0010794443 0 0.0010843591)
(0.00097734106 0 0.0018226976)
(0.00087814473 0 0.0025449943)
(0.00078298834 0 0.0032297552)
(0.00069291307 0 0.0038579701)
(0.00060878139 0 0.0044141788)
(0.00053118968 0 0.0048862608)
(0.000460445 0 0.0052655412)
(0.00039659013 0 0.0055456489)
(0.00033939579 0 0.0057213445)
(0.00028841591 0 0.0057860182)
(0.00024309809 0 0.0057302509)
(0.00020283164 0 0.005542434)
(0.00016685329 0 0.0052063399)
(0.00013413063 0 0.0046974525)
(0.00010331295 0 0.003981416)
(7.2485474e-05 0 0.0030056853)