/*--------------------------------*- C++ -*----------------------------------*\
  =========                 |
  \\      /  F ield         | OpenFOAM: The Open Source CFD Toolbox
   \\    /   O peration     | Website:  https://openfoam.org
    \\  /    A nd           | Version:  8
     \\/     M anipulation  |
\*---------------------------------------------------------------------------*/
FoamFile
{
    version     2.0;
    format      ascii;
    class       volScalarField;
    location    "0.250004";
    object      rho;
}
// * * * * * * * * * * * * * * * * * * * * * * * * * * * * * * * * * * * * * //

dimensions      [1 -3 0 0 0 0 0];

internalField   nonuniform List<scalar> 
20000
(
0.79726318
0.79772847
0.80077982
0.80730496
0.81986549
0.84469864
0.85994662
0.86417415
0.86179909
0.86413749
0.86323217
0.8653684
0.86543646
0.86779778
0.86890179
0.87196645
0.87441852
0.87881892
0.88333004
0.88994934
0.89747052
0.90756928
0.91952623
0.93421826
0.95117748
0.97067999
0.9917484
1.0139817
1.03648
1.0581227
1.0780129
1.0956268
1.1106804
1.1231758
1.1332701
1.141278
1.1475207
1.1523686
1.1561045
1.1590272
1.1613712
1.163252
1.1648608
1.1663536
1.1678698
1.1690892
1.1702441
1.1709456
1.1712153
1.1681275
0.7898607
0.79091641
0.79435789
0.8013693
0.81457606
0.84043035
0.85327688
0.85716373
0.85484176
0.85727941
0.85645376
0.85873276
0.85889962
0.86143422
0.86271563
0.86607465
0.86883745
0.87363493
0.87859275
0.8857614
0.89397907
0.90463625
0.91704699
0.93216336
0.94962664
0.9696082
0.99119729
1.0138644
1.0365394
1.0584857
1.0785846
1.0962527
1.1112617
1.1236611
1.1336586
1.1415753
1.1477443
1.1525359
1.1562372
1.1591424
1.161471
1.1633397
1.164943
1.1664471
1.1679611
1.1691538
1.1703121
1.1709288
1.1712218
1.168098
0.78473826
0.78619645
0.78998142
0.79745093
0.81139701
0.83813444
0.8489029
0.85255645
0.85027961
0.85283566
0.85207372
0.85447736
0.85473488
0.85743617
0.85892464
0.86257954
0.86571055
0.87097079
0.87635923
0.88392225
0.89243799
0.90340223
0.91618173
0.931602
0.94932234
0.96953906
0.99124694
1.0141978
1.037315
1.0594113
1.079515
1.0970976
1.1119791
1.1242352
1.1340945
1.14189
1.1479699
1.1526979
1.1563592
1.1592457
1.1615649
1.1634279
1.1650337
1.1665619
1.1680829
1.1692931
1.1703911
1.1710141
1.1711522
1.1679753
0.78157303
0.783344
0.78740306
0.79529654
0.80999583
0.83714745
0.84607057
0.84959713
0.84732344
0.8499451
0.84921054
0.85176172
0.85221774
0.85525851
0.85703007
0.86098302
0.86432515
0.86978606
0.8753649
0.88314007
0.89185572
0.90298422
0.91593597
0.93145345
0.94927958
0.96969324
0.99205291
1.015483
1.0387968
1.0609404
1.0809583
1.0983614
1.1130239
1.1250581
1.1347205
1.1423512
1.1483053
1.1529413
1.1565423
1.1593943
1.1616892
1.1635342
1.1651344
1.1666783
1.1682007
1.1694233
1.1704862
1.171012
1.1711066
1.1679201
0.77933393
0.78144233
0.78581512
0.79415923
0.80975114
0.83722458
0.84429949
0.84784616
0.84561697
0.84841081
0.84780099
0.85053817
0.85115133
0.85434532
0.85619841
0.86028189
0.86375003
0.86933781
0.8750373
0.88294531
0.89174451
0.90294221
0.91599336
0.93188965
0.95023988
0.97115638
0.99384847
1.0175306
1.0409582
1.0630072
1.0828032
1.0999196
1.1142835
1.1260381
1.135458
1.1428904
1.1486948
1.1532222
1.1567508
1.1595601
1.1618256
1.1636488
1.1652438
1.1668047
1.1683283
1.1695907
1.1705792
1.1710166
1.1710387
1.1678557
0.77864621
0.78084022
0.78537902
0.79410694
0.81061183
0.83814586
0.84347495
0.84707909
0.8448448
0.84776725
0.84719375
0.85002385
0.85071845
0.85397482
0.85589305
0.86006706
0.86361556
0.86924738
0.874999
0.88297138
0.89201547
0.90361115
0.91712577
0.93341977
0.952149
0.97343334
0.99648243
1.0203485
1.0437385
1.0655795
1.0850517
1.1017914
1.1157814
1.1271969
1.1363286
1.1435285
1.1491566
1.1535555
1.1569976
1.1597535
1.1619805
1.1637751
1.1653634
1.1669388
1.1684612
1.1697597
1.1706628
1.1710073
1.170954
1.1677999
0.77795915
0.78047027
0.78527575
0.79443787
0.81201847
0.83938105
0.84309262
0.84678563
0.84457913
0.84757154
0.84703082
0.84995053
0.85061621
0.85390907
0.85583556
0.86004638
0.86365084
0.86948082
0.87551617
0.88383693
0.89322467
0.90514047
0.91902173
0.9357351
0.95491261
0.97658693
0.99987707
1.0238091
1.0470672
1.0685938
1.0876442
1.1039252
1.1174766
1.1285032
1.137308
1.1442462
1.149676
1.1539303
1.1572744
1.1599681
1.1621495
1.1639108
1.1654938
1.167083
1.1686051
1.169912
1.1707053
1.1709544
1.1708233
1.1677298
0.77790354
0.78062071
0.78560611
0.7951422
0.81388821
0.84078455
0.84301708
0.84674965
0.84455667
0.84760152
0.8470481
0.8500009
0.85065854
0.85406117
0.85612274
0.86055118
0.86438571
0.87045125
0.87673061
0.88532031
0.89504671
0.90735035
0.92166941
0.9388126
0.95840827
0.98042737
1.0039301
1.0278561
1.0508828
1.0720029
1.090548
1.1062992
1.1193545
1.1299474
1.1383904
1.1450403
1.1502514
1.1543462
1.1575815
1.1602047
1.1623326
1.1640565
1.165636
1.1672385
1.1687611
1.1700261
1.1707223
1.1708968
1.1706326
1.1676395
0.77793336
0.78090428
0.78610398
0.7960051
0.81602234
0.84221524
0.84311449
0.84696416
0.84478354
0.84791174
0.84741545
0.85050762
0.85123093
0.85479182
0.85698924
0.86158804
0.8656053
0.87190475
0.87846452
0.88737325
0.89746317
0.9101479
0.92489824
0.94249089
0.96252999
0.98489153
1.0085525
1.0323987
1.0551147
1.0757472
1.0937142
1.108875
1.1213863
1.1315084
1.1395604
1.1458997
1.1508749
1.1547976
1.1579151
1.1604603
1.1625279
1.1642116
1.1657911
1.167408
1.168924
1.1701044
1.1707248
1.1708692
1.1703228
1.1675158
0.778651
0.78177352
0.78717586
0.79741578
0.81876549
0.84398212
0.84367627
0.84766499
0.84545525
0.84867464
0.84819887
0.85138645
0.85221357
0.8559267
0.85826521
0.86305366
0.86727799
0.87381829
0.88065664
0.88987601
0.90034075
0.91344057
0.92866008
0.94672592
0.96721228
0.98989767
1.0136787
1.0373804
1.059708
1.0797796
1.0971048
1.1116231
1.1235498
1.1331701
1.1408065
1.1468161
1.1515408
1.1552808
1.1582728
1.160733
1.1627344
1.1643765
1.1659598
1.1675948
1.1690856
1.1701652
1.170721
1.1708427
1.1699004
1.1673648
0.77948064
0.78287241
0.78852123
0.79911218
0.82184062
0.84588138
0.84457819
0.84856115
0.8464779
0.84972308
0.84937594
0.85262673
0.85358766
0.8574333
0.85990459
0.86487163
0.86929906
0.87608384
0.88321721
0.8927703
0.90363473
0.91716882
0.93287921
0.95144137
0.97238789
0.99538325
1.0192379
1.0427299
1.0646001
1.0840462
1.1006755
1.1145088
1.1258191
1.134913
1.1421147
1.1477796
1.1522422
1.1557911
1.1586514
1.1610204
1.1629506
1.1645515
1.1661426
1.167802
1.1692522
1.170219
1.1707126
1.1707946
1.169437
1.1672004
0.78067833
0.78431383
0.7902314
0.80117365
0.82525164
0.84791372
0.84578894
0.84989975
0.84779618
0.85115191
0.85080687
0.854169
0.85522244
0.85920931
0.86182437
0.86698211
0.87162715
0.87866793
0.88611109
0.89601283
0.90730023
0.92129863
0.93753119
0.95661258
0.97802283
1.0013045
1.0251835
1.0483997
1.069744
1.0885048
1.1043905
1.1175035
1.1281718
1.1367207
1.1434726
1.1487809
1.1529726
1.1563242
1.1590479
1.1613199
1.1631756
1.1647373
1.1663398
1.168032
1.1694257
1.1702681
1.1706575
1.1707087
1.1689784
1.1670363
0.78212257
0.7860029
0.79222089
0.80353397
0.82888582
0.85000716
0.84721537
0.8513888
0.84930761
0.85275485
0.85245983
0.85595417
0.85710106
0.86123465
0.86399969
0.86935299
0.87422463
0.88153205
0.88930199
0.89957373
0.91131069
0.92579961
0.94258027
0.96219989
0.98407302
1.0076113
1.0314584
1.0543315
1.0750853
1.0931077
1.1082107
1.120576
1.1305841
1.1385753
1.144867
1.1498105
1.1537251
1.1568753
1.1594593
1.1616297
1.1634084
1.1649351
1.1665524
1.1682813
1.1695873
1.1703156
1.1705778
1.1705344
1.1685488
1.1668831
0.7838069
0.78792541
0.79447672
0.80620322
0.83267417
0.85215026
0.84884949
0.85309324
0.85102121
0.85457273
0.85432376
0.85794202
0.8591925
0.86347758
0.86640219
0.87195863
0.87707065
0.8846579
0.89277519
0.90343937
0.91565332
0.93066201
0.94801809
0.96819191
0.99051847
1.0142737
1.0380254
1.0604846
1.0805836
1.0978186
1.1121046
1.1237007
1.1330361
1.1404613
1.1462862
1.1508596
1.1544935
1.1574401
1.1598824
1.1619483
1.1636485
1.1651463
1.1667829
1.1685228
1.1697208
1.1703486
1.1705248
1.1702244
1.1681719
1.1667454
0.78555951
0.78994965
0.7968976
0.8091483
0.83652178
0.85431623
0.85064768
0.85495712
0.8529095
0.85656693
0.85638846
0.86012683
0.86148388
0.86592499
0.86901638
0.87478461
0.88014967
0.8880308
0.89651647
0.90759661
0.92031534
0.93587082
0.95382648
0.974564
0.99732621
1.0212488
1.0448353
1.066808
1.0861921
1.1025963
1.1160382
1.1268505
1.1355069
1.1423631
1.1477182
1.1519193
1.1552713
1.1580142
1.1603137
1.1622739
1.1638954
1.1653721
1.1670355
1.1687406
1.1698208
1.1703598
1.1704947
1.169803
1.1678656
1.1666258
0.78748814
0.7921637
0.7995441
0.812441
0.84042452
0.85654961
0.8526132
0.85700189
0.85498243
0.8587424
0.85863335
0.86248981
0.86395876
0.86856059
0.87182957
0.87781823
0.88345232
0.89164434
0.90052247
0.91204443
0.92529642
0.94142726
0.96000496
0.98131094
1.0044804
1.0285111
1.0518548
1.0732659
1.091876
1.1074098
1.1199852
1.1300041
1.1379796
1.1442671
1.1491526
1.1529816
1.1560529
1.1585934
1.1607495
1.1626024
1.1641486
1.1656123
1.1673123
1.1689298
1.1698968
1.1703631
1.1704715
1.1693618
1.1676186
1.1665262
0.78955356
0.79451148
0.80236399
0.81607191
0.84432539
0.85884589
0.85473325
0.85920212
0.85722416
0.86107437
0.86103792
0.86501735
0.86660543
0.87137636
0.8748334
0.88105435
0.88697355
0.89549416
0.9047895
0.91677878
0.93059225
0.94732469
0.9665436
0.98841332
1.0119516
1.0360201
1.0590387
1.0798136
1.0975943
1.1122242
1.1239169
1.1331388
1.1404366
1.1461598
1.150579
1.1540387
1.1568327
1.1591738
1.1611874
1.162932
1.1644067
1.1658654
1.167606
1.1691008
1.1699616
1.1703605
1.1704432
1.1689462
1.167406
1.1664424
0.79177609
0.79701335
0.80536226
0.82007176
0.84820855
0.86124513
0.85699548
0.86154116
0.85960736
0.86354985
0.86359292
0.86770188
0.86941907
0.8743663
0.87802377
0.88448725
0.89071109
0.89958129
0.90932077
0.92180443
0.93620832
0.95356957
0.9734455
0.99586684
1.0197232
1.0437498
1.0663551
1.0864187
1.1033172
1.1170133
1.1278119
1.1362375
1.1428641
1.1480302
1.1519889
1.155084
1.1576057
1.1597518
1.1616244
1.1632617
1.1646695
1.1661294
1.167901
1.1692686
1.1700278
1.1703543
1.170386
1.1685859
1.1672075
1.1663673
0.79408056
0.79959653
0.80846179
0.82438865
0.85199336
0.86366179
0.8593664
0.86400108
0.86212115
0.86616542
0.86629666
0.87054233
0.87239567
0.87752679
0.88139639
0.8881174
0.89466662
0.90390791
0.91411786
0.92712242
0.94214486
0.96016046
0.98070297
1.0036526
1.0277639
1.0516595
1.0737608
1.09304
1.1090089
1.1217476
1.1316466
1.1392816
1.1452477
1.1498672
1.1533737
1.156111
1.1583673
1.1603238
1.1620579
1.1635895
1.1649367
1.1664031
1.168186
1.1694335
1.1701024
1.1703493
1.1702698
1.1682921
1.1670205
1.1662903
0.79649849
0.80228925
0.81169003
0.8290607
0.85570712
0.86613197
0.86186873
0.86660206
0.86477922
0.86892656
0.86914912
0.87353433
0.8755314
0.88085452
0.88495202
0.8919458
0.89884382
0.90847919
0.91918716
0.93274038
0.94841128
0.96710654
0.98831963
1.0117632
1.036054
1.0597213
1.0812251
1.099648
1.1146434
1.1264056
1.1354036
1.1422573
1.1475764
1.1516631
1.1547266
1.1571147
1.1591135
1.1608868
1.1624856
1.1639146
1.1652086
1.166687
1.1684514
1.1695852
1.1701699
1.1703613
1.1700599
1.1680614
1.1668496
1.1662058
0.79904719
0.80510678
0.81504725
0.83406215
0.85934472
0.86878817
0.8645083
0.86933333
0.86757109
0.8718238
0.87214212
0.87667221
0.87882354
0.8843502
0.88869372
0.89597824
0.90324813
0.91329976
0.92453283
0.93866279
0.95501205
0.97440872
0.99628677
1.0201756
1.044558
1.0678936
1.0887062
1.1062056
1.1201896
1.1309625
1.1390635
1.1451492
1.1498391
1.1534104
1.1560408
1.1580905
1.1598405
1.161438
1.1629051
1.1642355
1.1654855
1.1669835
1.1686899
1.1697205
1.1702336
1.1703963
1.1697932
1.1678504
1.1666966
1.1661144
0.80168643
0.80801804
0.81852168
0.83934598
0.8628931
0.87156268
0.86727315
0.87218726
0.87048495
0.87485118
0.8752715
0.87995694
0.88227507
0.8880194
0.89262739
0.90021969
0.90788499
0.91837603
0.93016321
0.94490076
0.96196011
0.98207703
1.0046049
1.0288767
1.0532516
1.0761456
1.0961732
1.112685
1.1256252
1.1354014
1.1426126
1.1479466
1.1520291
1.1551044
1.1573114
1.1590342
1.1605455
1.161975
1.1633145
1.1645511
1.1657669
1.167294
1.1689003
1.1698397
1.1702844
1.1704039
1.1694893
1.1676465
1.1665642
1.1660181
0.80446101
0.81107024
0.8221583
0.84492049
0.86637613
0.87443526
0.8701567
0.87516367
0.8735251
0.87800643
0.87854238
0.88339315
0.88589318
0.89186794
0.89675906
0.90467618
0.91275989
0.92371415
0.93608535
0.95146326
0.96926271
0.99011213
1.0132603
1.0378378
1.0620943
1.0844334
1.1035842
1.1190509
1.1309238
1.1397034
1.1460364
1.1506394
1.1541416
1.1567388
1.1585335
1.1599412
1.1612262
1.1624958
1.1637122
1.1648601
1.1660511
1.1676056
1.1690934
1.169941
1.1703248
1.1704082
1.1691709
1.1674441
1.1664394
1.1659297
0.80728071
0.81417885
0.82589693
0.8506628
0.86977307
0.87740408
0.87315886
0.8782631
0.87669407
0.88130497
0.88196
0.88698902
0.88968317
0.8959015
0.90109341
0.90935181
0.9178788
0.92932278
0.94231173
0.95836518
0.97693503
0.99852122
1.0222475
1.0470378
1.0710559
1.0927229
1.1109073
1.1252779
1.1360683
1.143857
1.1493272
1.1532245
1.1561765
1.1583058
1.1597046
1.1608069
1.1618809
1.1629987
1.1640971
1.1651617
1.1663358
1.1679158
1.1692744
1.1700271
1.1703554
1.1704022
1.1688461
1.1672499
1.1663237
1.165849
0.81024673
0.81744497
0.82984525
0.85660351
0.87317627
0.8805009
0.87628899
0.8814883
0.88000015
0.88474975
0.88553453
0.89074692
0.89364946
0.90012301
0.90563495
0.91425227
0.92324928
0.93521223
0.94885442
0.96561971
0.98498437
1.0073008
1.0315442
1.0564401
1.0800898
1.1009677
1.1181023
1.1313367
1.1410396
1.1478486
1.1524782
1.1557024
1.1581325
1.1597948
1.160822
1.1616271
1.1625079
1.1634827
1.1644685
1.1654558
1.1666201
1.1682205
1.1694502
1.170108
1.1703758
1.1703921
1.1685382
1.1670703
1.166222
1.1657775
0.8133103
0.82080459
0.8339595
0.8626136
0.87656402
0.88370038
0.87953218
0.88483491
0.88343694
0.88834506
0.88926654
0.89467082
0.89779383
0.90453619
0.91038788
0.91938366
0.92888114
0.94139656
0.95573091
0.97324502
0.99342499
1.0164522
1.0411358
1.0660146
1.0891592
1.1091315
1.1251408
1.1372117
1.1458291
1.1516702
1.1554883
1.1580785
1.160002
1.1612002
1.1618828
1.1624019
1.1631048
1.1639469
1.1648261
1.1657441
1.1669075
1.1685131
1.1696206
1.170193
1.170387
1.1703118
1.1682687
1.1669116
1.1661338
1.1657166
0.81647538
0.82426401
0.83828222
0.86862011
0.87995471
0.8870343
0.88291473
0.88832486
0.88702777
0.89207945
0.89315325
0.89876302
0.90212003
0.9091444
0.9153585
0.92475545
0.93478743
0.9478916
0.96295819
0.98125552
1.0022618
1.0259629
1.0509899
1.0757152
1.0982132
1.1171682
1.1319923
1.1428896
1.1504267
1.1553104
1.1583534
1.1603507
1.1617647
1.1625264
1.1628799
1.1631383
1.1636687
1.1643909
1.1651702
1.166029
1.1672059
1.1687843
1.1697722
1.1702628
1.1704235
1.1701133
1.1680475
1.1667753
1.1660578
1.165665
0.81983229
0.8278818
0.842879
0.87461219
0.88349777
0.89050094
0.88642801
0.89194884
0.89075835
0.8959665
0.89720154
0.9030256
0.9066333
0.91395286
0.92055528
0.93037986
0.94098439
0.95471709
0.97055706
0.98967015
1.0115042
1.0358251
1.0610805
1.085503
1.1072109
1.1250463
1.1386456
1.1483714
1.154826
1.1587621
1.1610681
1.1624991
1.1634121
1.1637829
1.1638042
1.1638482
1.1641983
1.1648142
1.1655006
1.1663132
1.1675223
1.1690254
1.1699038
1.1703174
1.1704416
1.1698327
1.1678481
1.166658
1.1659941
1.165622
0.82331042
0.83158537
0.84770237
0.88057173
0.88703036
0.89408705
0.89007175
0.89571283
0.89464285
0.90001419
0.90140659
0.90746156
0.91133764
0.91897021
0.92598988
0.93627331
0.94749126
0.96189339
0.9785461
0.99850123
1.0211489
1.0460143
1.0713626
1.0953233
1.1161008
1.1327335
1.1450938
1.1536482
1.1590035
1.1620205
1.1636204
1.1644997
1.1649443
1.1649773
1.1646549
1.1645334
1.1646974
1.1652162
1.1658172
1.1665985
1.1678512
1.1692381
1.1700139
1.1703581
1.1704461
1.1695079
1.1676522
1.166556
1.1659418
1.1655881
0.82697303
0.83543346
0.85281394
0.88650637
0.8906879
0.89781585
0.89386039
0.89962477
0.89868105
0.90421679
0.90578077
0.91207484
0.91624277
0.92420745
0.93167797
0.94245501
0.95432976
0.96944359
0.98694718
1.0077645
1.0311962
1.0565098
1.0817979
1.1051309
1.124846
1.1402184
1.1513393
1.1586868
1.1629452
1.1650764
1.1660032
1.1663576
1.1664067
1.1660846
1.1654474
1.1651711
1.1651756
1.1655958
1.1661198
1.1668844
1.1681791
1.1694323
1.1701073
1.1703906
1.1704425
1.1691471
1.1674583
1.1664631
1.1658994
1.165563
0.8308268
0.83942685
0.8582163
0.8923934
0.89444602
0.90167988
0.89778615
0.90367695
0.90286389
0.90856772
0.91033469
0.91687449
0.92135976
0.92967933
0.93763963
0.94894707
0.96152278
0.97738936
0.99577854
1.017466
1.0416312
1.0672713
1.09233
1.1148676
1.1334081
1.1474926
1.1573536
1.1634509
1.1666268
1.1679226
1.1682253
1.1681106
1.1677779
1.1671115
1.1661882
1.1657453
1.1656417
1.1659518
1.1664088
1.1671695
1.1684974
1.1696127
1.1701948
1.1704222
1.1704345
1.168794
1.1672729
1.1663797
1.1658673
1.1655484
0.83489351
0.84358172
0.86389864
0.89821434
0.89831849
0.90567557
0.9018459
0.90786871
0.90719768
0.91308301
0.91507008
0.92187002
0.92670398
0.93540586
0.94389654
0.95577344
0.96909399
0.98575501
1.0050602
1.0276149
1.0524406
1.0782639
1.1029097
1.124491
1.1417707
1.1545569
1.1630865
1.1679138
1.170037
1.1705771
1.1703276
1.1697458
1.1690598
1.1680576
1.1668714
1.1662721
1.1660895
1.1662842
1.1666858
1.1674546
1.1687989
1.1697793
1.1702774
1.170452
1.1703663
1.1684685
1.1671041
1.1663057
1.1658433
1.1655447
0.83916852
0.84788218
0.86982345
0.90391213
0.9022901
0.90979562
0.90603967
0.91220509
0.91169203
0.91777133
0.92000109
0.92708221
0.93229456
0.94140891
0.95047305
0.96295881
0.9770672
0.99456232
1.0148071
1.038206
1.0635932
1.0894307
1.1134738
1.1339532
1.1499205
1.1613685
1.1684892
1.1720447
1.1732013
1.1730899
1.1722754
1.1712725
1.1702509
1.1689247
1.1674966
1.1667574
1.1665145
1.166596
1.1669543
1.1677462
1.1690761
1.1699261
1.1703378
1.1704698
1.1701834
1.1681915
1.1669588
1.1662426
1.1658236
1.1655468
0.84365109
0.85234968
0.87597238
0.90948845
0.90638214
0.91405648
0.91038845
0.91670505
0.91636282
0.92264645
0.92514192
0.93253239
0.93815452
0.94771169
0.95739368
0.97052773
0.98546676
1.0038355
1.0250349
1.0492357
1.0750578
1.1007218
1.1239714
1.1432287
1.1578562
1.1678639
1.1735253
1.1758463
1.1761994
1.1754193
1.1740856
1.1726916
1.1713538
1.1697147
1.1680685
1.1672063
1.1669057
1.1668947
1.1672185
1.1680535
1.169318
1.1700486
1.1703832
1.1704767
1.1698781
1.1679741
1.1668381
1.1661935
1.165812
1.1655521
0.84834529
0.85703477
0.88236036
0.9149877
0.91062943
0.91847928
0.9149043
0.92137925
0.92122265
0.92772529
0.93051646
0.93823539
0.9443088
0.95433887
0.96468306
0.97850541
0.99431673
1.0135957
1.0357501
1.0606829
1.0867825
1.1120683
1.1343452
1.152293
1.1655322
1.1739782
1.1781667
1.1793953
1.1790018
1.1775764
1.1757573
1.174008
1.1723697
1.1704312
1.1685924
1.1676226
1.1672542
1.1671856
1.1674814
1.1683753
1.1695223
1.1701478
1.1704173
1.1704773
1.1695433
1.1677695
1.1667325
1.1661535
1.1658085
1.1655591
0.85330159
0.8619854
0.88892775
0.92043061
0.91504709
0.92306752
0.91959352
0.92623602
0.92628891
0.93303218
0.93615079
0.94421161
0.95078096
0.96131551
0.97236548
0.98691716
1.0036437
1.0238656
1.0469591
1.0725258
1.0987187
1.1234135
1.1445586
1.1611412
1.1728719
1.1796708
1.1824307
1.1827535
1.1815914
1.1795628
1.1772996
1.1752257
1.1733017
1.1710784
1.1690706
1.1680042
1.1675705
1.1674642
1.1677429
1.1686876
1.1697054
1.1702372
1.1704483
1.1704715
1.1691667
1.1675766
1.166641
1.1661193
1.1658096
1.1655669
0.85851426
0.86720235
0.89560866
0.9258043
0.91962433
0.92782215
0.92447936
0.93130319
0.93158945
0.93858978
0.94206401
0.95049105
0.95759394
0.9686656
0.98046557
0.99579018
1.0134741
1.0346622
1.058653
1.0847201
1.110797
1.1346901
1.1545741
1.1697387
1.1797876
1.1849077
1.1864105
1.1858796
1.1839762
1.181386
1.1787174
1.1763489
1.1741523
1.1716601
1.1695031
1.16835
1.1678611
1.1677297
1.1680014
1.1689816
1.1698687
1.1703193
1.1704777
1.1704356
1.1688106
1.1674004
1.1665689
1.1661009
1.1658124
1.1655789
0.86400435
0.87273429
0.90237787
0.93114504
0.92438881
0.93278354
0.92958772
0.93660866
0.93714659
0.94441756
0.94827461
0.95709638
0.96477071
0.97641293
0.98900948
1.0051537
1.0238368
1.0460015
1.070821
1.0972206
1.1229562
1.1458499
1.1643768
1.1779978
1.1862359
1.1897072
1.1901671
1.188759
1.1861622
1.1830542
1.1800187
1.1773827
1.1749251
1.1721793
1.1698908
1.1686628
1.168131
1.1679817
1.1682563
1.1692537
1.1700081
1.1703766
1.1704977
1.1703094
1.1684873
1.1672462
1.1665126
1.1660934
1.1658247
1.1656035
0.86973543
0.87863719
0.90928357
0.93654112
0.92937742
0.93798074
0.9349472
0.94216863
0.94297529
0.9505296
0.9548047
0.9640438
0.97233487
0.98458511
0.99802587
1.0150405
1.0347566
1.0578895
1.0834291
1.1099616
1.1351178
1.1568414
1.1739381
1.1858117
1.192171
1.1941663
1.1936593
1.1914
1.1881576
1.1845751
1.1812098
1.1783317
1.175623
1.1726379
1.1702351
1.1689454
1.1683837
1.1682219
1.1685116
1.1694983
1.1701228
1.1704182
1.170506
1.17007
1.1682177
1.1671138
1.1664682
1.1660915
1.1658447
1.1656344
0.87572748
0.88496853
0.9163033
0.94209697
0.93462487
0.94342548
0.94055336
0.94798132
0.94908373
0.95694374
0.96167703
0.97135536
0.98031249
0.99321151
1.0075477
1.025485
1.0462603
1.0703252
1.0964409
1.1228779
1.1472228
1.1676318
1.1831812
1.1931164
1.1975938
1.1983712
1.1968644
1.1938115
1.1899727
1.185958
1.1822985
1.1792011
1.1762496
1.1730381
1.1705383
1.1692008
1.1686238
1.1684531
1.1687764
1.1697078
1.1702184
1.17045
1.1705052
1.1697367
1.1680085
1.1670022
1.1664295
1.1660916
1.1658684
1.1656693
0.88198545
0.89170461
0.92333967
0.94790085
0.9400642
0.94908986
0.94640704
0.95406117
0.95549654
0.96368539
0.96891235
0.97905996
0.98873208
1.0023265
1.0176126
1.0365225
1.0583664
1.0832893
1.1097946
1.1358859
1.1592037
1.1781847
1.1919845
1.1998581
1.2026034
1.2022773
1.1997949
1.1960031
1.1916165
1.187211
1.1832911
1.1799948
1.1768066
1.1733821
1.1708036
1.169432
1.1688476
1.1686785
1.1690508
1.1698811
1.1703057
1.1704808
1.1704998
1.1693799
1.1678122
1.1669083
1.1664038
1.1661008
1.1658962
1.1657076
0.88845073
0.89883139
0.93038649
0.95378576
0.94574395
0.95501116
0.95255426
0.9604475
0.9622471
0.97078078
0.97653404
0.98718263
0.99762756
1.0119704
1.0282604
1.0481887
1.0710872
1.0967555
1.1234273
1.1489144
1.1710124
1.1884544
1.2002423
1.2060123
1.2073081
1.2058606
1.2024609
1.1979876
1.1931003
1.1883437
1.1841947
1.1807167
1.1772949
1.1736729
1.1710348
1.169644
1.1690639
1.1688992
1.1693118
1.1700323
1.1703839
1.1705134
1.1704593
1.1690061
1.167631
1.1668336
1.1663934
1.1661178
1.1659269
1.165748
0.89522574
0.90640658
0.93751503
0.95962616
0.95172648
0.96122382
0.95901555
0.96715911
0.96935424
0.97825058
0.98456884
0.99575852
1.0070383
1.0221892
1.0395345
1.0605129
1.0844172
1.1106707
1.1372522
1.1618825
1.1825958
1.1983049
1.2078944
1.2116633
1.2116831
1.2091246
1.2048744
1.1997757
1.1944337
1.1893644
1.1850153
1.1813696
1.1777142
1.1739132
1.1712357
1.1698393
1.1692711
1.1691153
1.169553
1.1701567
1.1704399
1.1705376
1.1703478
1.1686654
1.1674705
1.1667735
1.1663899
1.1661381
1.1659591
1.1657894
0.90235781
0.91448671
0.94480127
0.96596532
0.95800217
0.96773439
0.96580164
0.974208
0.97683436
0.98611144
0.99306567
1.0048313
1.0170101
1.0330323
1.0514789
1.073519
1.0983407
1.1249745
1.1511886
1.1747263
1.1939171
1.2076089
1.214896
1.2169253
1.2157025
1.2120843
1.2070503
1.2013811
1.1956283
1.1902823
1.1857597
1.1819588
1.1780688
1.1741056
1.1714105
1.1700213
1.1694704
1.1693254
1.1697713
1.1702579
1.1704777
1.1705448
1.1701373
1.1683823
1.1673341
1.1667244
1.1663905
1.1661602
1.1659923
1.1658315
0.90974044
0.92296205
0.95214861
0.97252016
0.96458812
0.9745563
0.97293098
0.981616
0.98471263
0.99440205
1.0020607
1.0144576
1.0275964
1.0445515
1.0641338
1.0872159
1.1128161
1.1395802
1.1651404
1.1873705
1.2048633
1.2162669
1.2212825
1.2218342
1.2193511
1.2147528
1.209002
1.2028152
1.1966936
1.1911053
1.1864346
1.1824922
1.1783702
1.1742533
1.1715628
1.1701917
1.169661
1.1695279
1.1699671
1.1703455
1.1705051
1.1705449
1.1698246
1.1681742
1.1672241
1.1666824
1.1663914
1.1661853
1.166027
1.1658751
0.91743867
0.93195281
0.95971055
0.97938386
0.97152046
0.98172545
0.98042929
0.9894133
0.99302937
1.0031742
1.0116074
1.0246931
1.0388515
1.0567979
1.0775333
1.1016004
1.12779
1.1544017
1.1790296
1.1997637
1.2152881
1.2242248
1.2271741
1.226353
1.2226511
1.2171486
1.2107461
1.2040918
1.1976407
1.1918425
1.187047
1.1829783
1.1786325
1.1743633
1.1716963
1.1703521
1.169842
1.1697208
1.1701399
1.1704294
1.1705342
1.1705352
1.1694902
1.1679884
1.1671417
1.1666658
1.1664071
1.1662168
1.1660644
1.1659209
0.92537297
0.94138219
0.96744106
0.98652602
0.97878654
0.98924071
0.98832731
0.99763995
1.0018397
1.0124924
1.0217636
1.0355982
1.0508331
1.0698204
1.0916994
1.1166426
1.1431801
1.1693314
1.1927672
1.21183
1.2250308
1.2314556
1.2326804
1.230443
1.2256155
1.2192875
1.212296
1.205222
1.1984791
1.1925013
1.1876024
1.1834179
1.1788442
1.1744506
1.1718152
1.1705039
1.170013
1.1699026
1.1702835
1.1705031
1.1705811
1.1704787
1.1691337
1.1678229
1.1670762
1.1666598
1.1664278
1.1662517
1.1661043
1.1659689
0.93353923
0.95128158
0.97546071
0.99398644
0.98644519
0.99716499
0.99668661
1.0063561
1.0112047
1.022418
1.0325982
1.0472347
1.0635974
1.0836623
1.1066383
1.1322963
1.1588946
1.1842755
1.2062765
1.2234044
1.2340301
1.2380819
1.2377519
1.234134
1.2282666
1.2211893
1.2136684
1.2062192
1.1992192
1.1930901
1.1881055
1.183803
1.1789376
1.1745313
1.1719239
1.1706486
1.1701751
1.1700747
1.1703989
1.1705584
1.17061
1.1703662
1.1688088
1.1676724
1.1670205
1.1666595
1.1664523
1.1662886
1.1661462
1.1660185
0.94199069
0.96171336
0.98348403
1.0018526
0.99457966
1.0055698
1.0055731
1.015624
1.0211944
1.0330069
1.044171
1.0596701
1.0772014
1.0983565
1.1223333
1.1484812
1.1748162
1.1991231
1.219472
1.2343059
1.2422147
1.2442349
1.2423524
1.2374386
1.2306229
1.2228709
1.2148768
1.2070941
1.1998698
1.1936159
1.1885588
1.1841255
1.1789633
1.1745989
1.1720251
1.1707874
1.1703295
1.170239
1.1704898
1.170597
1.1706198
1.1701734
1.1685331
1.1675422
1.1669735
1.1666626
1.1664783
1.1663272
1.1661895
1.1660694
0.95068159
0.97273252
0.99203035
1.0101733
1.0032155
1.0144952
1.0150441
1.0255153
1.0318876
1.0443196
1.0565449
1.0729717
1.091698
1.1139198
1.1387454
1.1651038
1.1908325
1.213776
1.2322264
1.2444133
1.2496706
1.2499171
1.2464894
1.240384
1.2327082
1.224352
1.215937
1.2078591
1.2004409
1.194086
1.1889667
1.1843877
1.1789521
1.174657
1.1721208
1.1709206
1.1704748
1.1703906
1.1705665
1.1706297
1.170618
1.1698844
1.1683239
1.1674362
1.1669385
1.1666727
1.166506
1.166368
1.1662343
1.1661213
0.95954711
0.98442677
1.0011446
1.0190105
1.0124205
1.0240009
1.0251706
1.0360943
1.0433395
1.0564533
1.0697982
1.0872078
1.1071284
1.1303462
1.1558016
1.1820403
1.2068166
1.2281246
1.2443274
1.2536426
1.2565298
1.2550832
1.2501843
1.2429907
1.2345422
1.2256489
1.2168616
1.2085243
1.2009405
1.1945065
1.1893348
1.1846059
1.1789266
1.1746998
1.1722113
1.1710472
1.1706077
1.1705227
1.170635
1.1706775
1.1705872
1.1695627
1.1681446
1.1673495
1.1669118
1.1666874
1.1665395
1.1664109
1.1662805
1.1661737
0.96876439
0.99689021
1.0104995
1.0284281
1.0222671
1.0341673
1.0360359
1.047451
1.0556358
1.0694862
1.0840052
1.1024353
1.1235168
1.1476019
1.1734071
1.1991626
1.2226541
1.2420708
1.2555901
1.2620028
1.2628834
1.2597142
1.2534655
1.2452872
1.2361489
1.2267805
1.2176652
1.209101
1.2013775
1.1948841
1.1896693
1.1847928
1.1788817
1.1747338
1.1722966
1.1711648
1.1707273
1.1706384
1.1706956
1.170735
1.170508
1.1692253
1.1679845
1.167283
1.1669011
1.1667059
1.1665764
1.1664562
1.1663287
1.1662258
0.9783485
1.0101167
1.0204762
1.0384856
1.0328391
1.0450728
1.0477407
1.0596731
1.0688673
1.083503
1.0992339
1.1187053
1.1408666
1.1656205
1.1914309
1.2163235
1.2382047
1.2553749
1.2659144
1.269633
1.268665
1.2638411
1.2563579
1.2472971
1.2375479
1.2277621
1.2183596
1.2095984
1.2017593
1.1952237
1.1899712
1.1849242
1.1788173
1.1747608
1.1723773
1.1712746
1.1708345
1.1707359
1.1707431
1.1707522
1.1703838
1.1689146
1.1678399
1.1672301
1.1668982
1.1667275
1.1666107
1.1664977
1.1663767
1.1662802
0.98834138
1.0242412
1.0311021
1.049287
1.0442388
1.0568126
1.0603719
1.0728349
1.0831443
1.0985897
1.1155437
1.1360458
1.1591507
1.1843022
1.2097282
1.2333799
1.2533447
1.2678236
1.2752424
1.2767038
1.2738324
1.2674932
1.2588951
1.249049
1.2387618
1.228611
1.218958
1.210027
1.2020941
1.1955304
1.1902374
1.1849822
1.1787416
1.1747838
1.1724549
1.1713805
1.170936
1.1708106
1.1707863
1.1707557
1.1701936
1.1686474
1.1677141
1.1671869
1.1668995
1.16675
1.1666436
1.1665362
1.1664187
1.1663356
0.99887205
1.0393474
1.0425181
1.0609312
1.0565679
1.0694826
1.0740169
1.0870394
1.0985291
1.1148196
1.1329854
1.1544696
1.1783087
1.203507
1.2281259
1.2501615
1.2678546
1.2792558
1.2837171
1.2831273
1.2784249
1.270701
1.2611054
1.2505663
1.2398089
1.2293412
1.2194709
1.210395
1.2023884
1.1958068
1.1904642
1.184997
1.1786587
1.1748045
1.17253
1.1714798
1.1710282
1.1708778
1.1708267
1.1707497
1.1699215
1.1684431
1.1676115
1.1671527
1.166904
1.1667753
1.1666776
1.1665754
1.1664622
1.1663841
1.0100655
1.0554514
1.0548166
1.0734983
1.0699177
1.083151
1.0887538
1.1023776
1.1150817
1.1322615
1.1516048
1.173957
1.1982361
1.2230675
1.2464502
1.2665101
1.2814794
1.2895883
1.2915208
1.2888704
1.2824747
1.2735037
1.263023
1.2518762
1.2407102
1.2299681
1.2199103
1.210712
1.2026487
1.1960555
1.1906547
1.1849935
1.1785731
1.1748235
1.172603
1.1715722
1.1711093
1.1709344
1.1708716
1.1706965
1.1696117
1.1682769
1.1675299
1.1671297
1.166917
1.166805
1.1667132
1.1666159
1.1665076
1.166426
1.0220803
1.0726139
1.0681148
1.0870598
1.0843608
1.0978814
1.1046393
1.1189156
1.1328818
1.150997
1.1714309
1.1944506
1.2187786
1.242779
1.2644976
1.2822148
1.2939993
1.2989334
1.2986051
1.2939513
1.2860181
1.2759343
1.2646758
1.2530008
1.2414822
1.2305044
1.2202857
1.2109852
1.2028801
1.1962796
1.190818
1.1849721
1.1784905
1.1748463
1.1726744
1.1716596
1.1711856
1.1709815
1.1708923
1.1706011
1.169296
1.1681283
1.167465
1.1671165
1.166936
1.1668358
1.16675
1.1666568
1.166553
1.1664645
1.0352442
1.0908131
1.0825309
1.101627
1.0999641
1.1137674
1.1218211
1.1367213
1.1520348
1.1711042
1.1924557
1.2158248
1.2397356