/*--------------------------------*- C++ -*----------------------------------*\
  =========                 |
  \\      /  F ield         | OpenFOAM: The Open Source CFD Toolbox
   \\    /   O peration     | Website:  https://openfoam.org
    \\  /    A nd           | Version:  8
     \\/     M anipulation  |
\*---------------------------------------------------------------------------*/
FoamFile
{
    version     2.0;
    format      ascii;
    class       surfaceVectorField;
    location    "0.250004";
    object      rhoUf;
}
// * * * * * * * * * * * * * * * * * * * * * * * * * * * * * * * * * * * * * //

dimensions      [1 -2 -1 0 0 0 0];

internalField   nonuniform List<vector> 
39600
(
(197.98776 0 7.6036765)
(184.15217 1.2073743e-16 6.5394304)
(181.3073 -1.0896155e-16 7.1248467)
(227.09894 9.545206e-22 8.5793451)
(217.93354 0 7.9126411)
(215.19463 0 8.5871707)
(249.32735 2.0721678e-19 9.2513192)
(240.98248 2.7148285e-19 8.5562725)
(238.41713 1.6493513e-22 9.3155951)
(270.58173 -4.5846834e-17 9.8491448)
(262.03519 -1.0016438e-20 9.1403931)
(259.61948 2.3936773e-19 9.9489882)
(293.09393 -1.5046367e-17 10.449901)
(283.37045 -5.0268848e-17 9.6280898)
(281.09069 -5.3143701e-17 10.518444)
(310.30123 8.2562676e-17 10.828934)
(307.05752 -7.4797159e-19 10.368818)
(305.07416 8.6657749e-17 11.303137)
(317.06365 1.2166157e-17 11.059163)
(315.38798 7.6311868e-17 10.065094)
(315.41791 4.7279079e-18 11.136388)
(317.94282 -3.4431337e-17 11.122153)
(319.04991 -6.3901092e-17 11.071757)
(319.32846 -3.3404113e-17 12.134892)
(317.37415 2.0021025e-17 11.135129)
(316.46325 -8.7722112e-19 9.8553885)
(316.74305 4.345737e-19 11.000027)
(317.76449 6.12646e-18 11.188425)
(318.31487 3.1749087e-17 11.333466)
(318.5681 1.6340819e-18 12.427059)
(317.52289 -3.3917631e-17 11.220711)
(316.95288 -8.8857914e-18 9.8119388)
(317.2099 -1.9846341e-17 10.999417)
(317.78393 -4.1460406e-18 11.276939)
(318.08019 -1.5261773e-17 11.402358)
(318.31085 -4.3996234e-19 12.553051)
(317.684 1.2726173e-17 11.319895)
(317.3094 1.2622928e-17 9.9536289)
(317.53641 1.3268073e-17 11.189859)
(317.90404 -2.3329597e-18 11.37834)
(318.03822 4.7881703e-20 11.344097)
(318.24085 -1.181806e-17 12.56996)
(317.93287 6.262926e-19 11.420622)
(317.66379 1.7919289e-19 10.187222)
(317.85044 -1.1615749e-18 11.490195)
(318.16953 2.0246625e-18 11.455545)
(318.21698 -6.7269889e-20 11.2046)
(318.36312 1.6493864e-17 12.536553)
(318.31833 -8.9081523e-19 11.455017)
(318.11634 6.2010203e-21 10.370657)
(318.22862 -1.244138e-17 11.781345)
(318.62657 -5.0141513e-18 11.416575)
(318.61234 -9.7544029e-19 10.960859)
(318.67919 4.591388e-18 12.440676)
(318.91592 -4.3319286e-18 11.304423)
(318.75178 -2.0763749e-18 10.349962)
(318.7687 -3.7952907e-18 11.914472)
(319.32971 -1.9593021e-19 11.106907)
(319.26918 9.7309168e-18 10.521931)
(319.23733 3.8242813e-18 12.173452)
(319.77819 -1.4288981e-18 10.8015)
(319.5952 -7.6207181e-19 9.9632234)
(319.51991 -6.4952437e-18 11.700877)
(320.34595 -1.6935994e-18 10.330488)
(320.15338 -6.4038076e-19 9.7069247)
(320.00615 3.5885532e-18 11.535935)
(320.90266 5.4982802e-18 9.6567156)
(320.57679 -1.0773492e-18 8.9694413)
(320.37745 2.6459677e-18 10.873695)
(321.39195 2.6220621e-18 8.776506)
(321.08464 -2.4204159e-19 8.2259953)
(320.84141 4.8101744e-18 10.206371)
(321.68975 1.6694196e-18 7.6552598)
(321.41051 6.5915638e-18 7.1459144)
(321.12449 -7.4621972e-18 9.1683835)
(321.69928 1.8209655e-17 6.3297506)
(321.56306 3.924038e-18 5.9235521)
(321.25125 1.1502279e-17 7.9406897)
(321.28079 2.4653576e-17 4.9536916)
(321.41046 -4.5073356e-17 4.5394005)
(321.12114 9.1482802e-18 6.5004024)
(320.41823 7.0584754e-18 3.6894838)
(320.8486 8.9347373e-18 3.2548712)
(320.6028 1.1210432e-17 5.1117751)
(319.1252 -2.5156169e-18 2.6363097)
(319.80271 -1.8439113e-17 2.1654676)
(319.6097 -8.7758217e-18 3.8606011)
(317.48835 -1.1590798e-18 1.881543)
(318.32533 5.3629008e-17 1.3847184)
(318.18908 8.5479664e-18 2.8713893)
(315.6499 -6.6610013e-18 1.4378321)
(316.55436 -1.6525705e-17 0.92893858)
(316.46784 -1.2148162e-17 2.1870158)
(313.7704 5.4692241e-17 1.2547072)
(314.66003 -2.7507944e-17 0.77206238)
(314.61043 1.5533782e-18 1.8027592)
(311.98285 4.9815526e-17 1.2451774)
(312.80035 -8.9996362e-18 0.81747027)
(312.77373 2.4250809e-17 1.637816)
(310.37419 1.1585715e-17 1.3158261)
(311.08657 0 0.96830301)
(311.07098 -6.4754845e-19 1.6050669)
(308.99091 5.5866587e-18 1.3893643)
(309.59313 -7.9000973e-17 1.134898)
(309.58083 1.2047889e-17 1.6181953)
(307.84333 -2.4529326e-17 1.4106842)
(308.33767 -1.9900877e-17 1.2478299)
(308.32408 -5.040225e-18 1.6079286)
(306.92658 -6.0921987e-18 1.3624806)
(307.31639 2.3179852e-19 1.2791224)
(307.30134 -7.0507004e-18 1.5430692)
(306.22099 1.3500827e-17 1.2406896)
(306.51831 -9.2060916e-17 1.2247897)
(306.50226 2.1927328e-18 1.4155473)
(305.69813 -4.5485088e-17 1.053299)
(305.9181 -1.3868123e-16 1.0907545)
(305.90222 3.2583045e-22 1.2268951)
(305.32626 2.7848182e-17 0.81308032)
(305.48242 -1.0276514e-16 0.88747508)
(305.46832 -1.29305e-17 0.9844607)
(305.07733 5.6596386e-17 0.53573918)
(305.17816 1.9120486e-17 0.63584947)
(305.16685 2.4970967e-17 0.70424224)
(304.93112 -1.4572224e-16 0.23944579)
(304.98595 -9.8474404e-17 0.35551766)
(304.9776 -1.49635e-17 0.40329205)
(304.86679 -1.0449903e-16 -0.070550193)
(304.88487 -2.0959599e-17 0.056969071)
(304.87981 -2.2244339e-17 0.091434309)
(304.86154 -4.0725742e-17 -0.37391696)
(304.85369 -2.3958691e-19 -0.25756585)
(304.85345 4.6420639e-18 -0.23016677)
(304.90265 -5.050049e-17 -0.63729279)
(304.86573 -4.0267693e-19 -0.54849757)
(304.87066 -6.5067243e-18 -0.52808729)
(304.98302 1.461578e-19 -0.68988346)
(304.9236 1.3199759e-19 -0.75808917)
(304.94094 2.1871206e-20 -0.74262259)
(305.00607 0 -0.78975596)
(304.96363 6.2461081e-18 -0.85088398)
(304.9686 1.4255396e-18 -0.83989384)
(305.07002 -2.6450924e-17 -0.12484903)
(305.04413 3.8016108e-21 -0.71335406)
(305.09205 3.8952267e-24 -0.70783348)
(304.832 -3.2501681e-17 -0.38093628)
(304.8726 5.2855112e-17 -0.50279792)
(304.86394 -1.6897321e-18 -0.52485693)
(304.84595 4.5105502e-17 -0.15841476)
(304.8444 0 -0.19028439)
(200.6139 1.3058016e-16 6.9337469)
(186.32669 -4.1214799e-18 5.8804858)
(229.52618 2.4311845e-19 7.8004439)
(220.04722 3.1415378e-19 7.1500378)
(251.59699 8.0779504e-20 8.3985911)
(243.00085 7.0795014e-17 7.7178665)
(272.71761 -4.3591206e-19 8.9294418)
(263.97944 -6.9811383e-19 8.2483269)
(295.02485 -4.014454e-17 9.4531169)
(285.27983 -2.5637554e-17 8.6426653)
(311.2405 -1.2835418e-17 9.7608188)
(308.6993 -2.132558e-17 9.3351719)
(316.91829 1.2915243e-17 9.9301006)
(315.33439 1.8565067e-17 8.9162751)
(317.68369 -3.603655e-17 9.9754248)
(318.83868 1.9256618e-18 9.9473715)
(317.11923 8.0334729e-18 9.9770413)
(316.25042 -1.3980151e-17 8.6354923)
(317.51686 2.0255952e-17 10.009521)
(318.13721 1.1671827e-17 10.185382)
(317.29131 9.83536e-18 10.021657)
(316.76681 2.7790937e-19 8.5537584)
(317.5711 -1.0571435e-18 10.04913)
(317.92811 6.8825651e-18 10.212237)
(317.48724 1.225977e-18 10.063179)
(317.14885 9.8322435e-18 8.6578334)
(317.73243 2.4952605e-18 10.085845)
(317.9024 -4.1249373e-18 10.079901)
(317.7941 -4.7992298e-19 10.082097)
(317.54674 3.4029977e-18 8.8182157)
(318.07475 -2.0485362e-18 10.058262)
(318.14707 -7.5768862e-18 9.8216788)
(318.27122 2.0814527e-21 9.9854195)
(318.07485 6.0633529e-21 8.8944397)
(318.63844 1.9911697e-18 9.8717191)
(318.61113 -5.0375364e-21 9.4314744)
(318.9939 1.0725955e-17 9.6735441)
(318.79282 1.113861e-17 8.7306257)
(319.49455 1.0035709e-17 9.4008717)
(319.34433 1.5195564e-18 8.8237174)
(320.0034 0 8.9891894)
(319.71969 -1.2652948e-17 8.17409)
(320.56191 0 8.4338644)
(320.31623 -2.6691873e-17 7.831101)
(321.06875 -6.7769585e-18 7.6892641)
(320.78091 4.4445751e-18 7.0197025)
(321.51731 3.0669331e-18 6.7623211)
(321.3156 2.5645465e-19 6.2133226)
(321.7882 9.0524638e-18 5.6366306)
(321.66643 6.0732616e-18 5.1013201)
(321.78514 -5.3790557e-17 4.3530611)
(321.82845 -5.1507824e-18 3.8945085)
(321.38827 -6.5309931e-17 3.0647594)
(321.64839 -1.6429817e-17 2.580876)
(320.52605 -1.3556773e-17 1.9254863)
(321.03485 -7.2915883e-18 1.4104179)
(319.22264 3.0029182e-17 1.060085)
(319.92983 -6.0545433e-18 0.48419523)
(317.5867 4.5239852e-17 0.5133743)
(318.3996 9.4359792e-18 -0.091757671)
(315.74235 -3.6042355e-17 0.29019473)
(316.58415 5.9871438e-17 -0.31955162)
(313.84997 -9.2341703e-17 0.3227619)
(314.66055 1.2469112e-16 -0.24985812)
(312.04741 -5.9205024e-17 0.50884218)
(312.78676 -6.4122745e-17 0.0041396004)
(310.42864 -8.1538248e-17 0.74881292)
(311.07017 8.4837044e-18 0.3369185)
(309.04198 -1.1052398e-16 0.96232269)
(309.58074 1.5007881e-17 0.65601221)
(307.89231 2.5291627e-18 1.0957427)
(308.33272 1.0468416e-17 0.89154567)
(306.97148 -7.5230098e-17 1.1343307)
(307.31795 -1.562651e-17 1.018642)
(306.26161 -2.383034e-16 1.0785733)
(306.52469 -1.8518111e-16 1.0375804)
(305.73432 -1.9962059e-16 0.93999477)
(305.9272 -1.3802053e-16 0.95846692)
(305.35598 -1.2500146e-16 0.73484964)
(305.49202 6.5183141e-17 0.79474047)
(305.09904 -1.2243238e-16 0.48292589)
(305.18657 8.6731893e-17 0.57202239)
(304.94522 1.7424612e-17 0.20417781)
(304.99244 7.0815125e-17 0.31247179)
(304.8729 8.0941333e-17 -0.094881573)
(304.8889 7.2731978e-17 0.027189426)
(304.85875 4.0168989e-17 -0.39243249)
(304.8533 -7.6390705e-18 -0.28046974)
(304.88569 5.0310114e-17 -0.65077794)
(304.86044 2.3688683e-16 -0.56522773)
(304.93689 5.5753126e-18 -0.80291491)
(304.91391 -8.3211757e-18 -0.77091749)
(304.95913 6.9280359e-18 -0.796937)
(304.95463 2.044664e-16 -0.86199121)
(305.00416 7.7588969e-17 -0.2182451)
(305.00316 -4.6433402e-18 -0.72016354)
(304.86518 1.3263276e-16 -0.35502963)
(304.87374 2.7265762e-17 -0.48108078)
(304.84624 3.68223e-18 -0.12453247)
(202.48287 -1.3169641e-16 6.2140186)
(188.02677 -1.8016487e-16 5.1761377)
(231.35621 6.3752018e-17 6.9885018)
(221.76598 -4.6341007e-20 6.3409002)
(253.39589 7.5571509e-17 7.5202534)
(244.70773 1.3894975e-16 6.8294551)
(274.52568 -2.3375038e-17 7.9855464)
(265.70322 -6.10538e-17 7.3051218)
(296.74156 -7.592549e-18 8.4245965)
(287.09402 -2.5692111e-17 7.598289)
(312.10158 6.2344435e-18 8.6520193)
(310.23448 2.1508501e-17 8.2323039)
(316.85913 9.1298518e-18 8.7641934)
(315.33001 -1.9056107e-17 7.7015749)
(317.55412 2.4704263e-17 8.7837495)
(318.73843 6.6561596e-17 8.782904)
(317.00486 -1.2426406e-17 8.7702999)
(316.11731 -2.6102516e-17 7.3634603)
(317.41744 -6.9491505e-18 8.7831688)
(318.03188 4.2289819e-18 8.9969764)
(317.19651 -3.1286886e-18 8.7780244)
(316.63172 -6.8386793e-18 7.2498336)
(317.48778 1.7290651e-17 8.7827875)
(317.82958 7.6604268e-18 8.9829959)
(317.4115 5.7080773e-18 8.7650773)
(317.04326 6.2879859e-18 7.3195195)
(317.68487 -3.8322355e-18 8.7463342)
(317.83354 -5.334658e-18 8.7658342)
(317.7788 -2.6604757e-18 8.682077)
(317.51553 1.6587992e-18 7.3942698)
(318.10931 -6.1724607e-18 8.6005002)
(318.14313 -7.4391816e-19 8.3776515)
(318.37103 0 8.4617409)
(318.10288 1.2218885e-18 7.3596787)
(318.80124 8.0446367e-18 8.2678248)
(318.67851 -1.2197941e-17 7.8454403)
(319.2017 2.9182589e-18 7.9880184)
(318.8883 -3.5909611e-19 7.067777)
(319.71598 -1.9516577e-17 7.6260902)
(319.46295 -7.3886214e-18 7.0864736)
(320.22422 -3.7634557e-17 7.1320282)
(319.87127 5.0651465e-19 6.3566072)
(320.79814 -2.4948239e-17 6.5056955)
(320.49122 -4.4303751e-18 5.9344607)
(321.32543 1.1699379e-17 5.6922582)
(320.98894 4.3577664e-18 5.055438)
(321.7737 2.6997977e-18 4.7162633)
(321.53853 1.5330327e-17 4.1872723)
(322.02027 -6.8678874e-18 3.5795179)
(321.89866 -1.2608526e-17 3.0396408)
(321.95837 3.253145e-17 2.329566)
(322.05371 0 1.8444577)
(321.49335 3.9728167e-17 1.1395224)
(321.83174 -4.7639465e-17 0.60039979)
(320.60776 0 0.14207292)
(321.16369 1.5478454e-17 -0.45509945)
(319.28338 -2.7830755e-17 -0.54722061)
(319.99784 -6.338367e-18 -1.2121477)
(317.59498 1.9010447e-17 -0.87550388)
(318.41399 -3.0816797e-17 -1.5767312)
(315.70985 2.1222388e-16 -0.86672166)
(316.55868 1.285555e-16 -1.5696293)
(313.79828 1.7155475e-16 -0.6111682)
(314.61313 5.1636487e-17 -1.2683425)
(311.99345 -4.5495038e-18 -0.22578877)
(312.73365 -1.0862323e-17 -0.80356507)
(310.3819 1.0347509e-16 0.18437098)
(311.02235 -1.3008973e-16 -0.28872234)
(309.0064 1.3542502e-16 0.53727416)
(309.54418 -9.5814247e-17 0.18179124)
(307.86887 -4.8200306e-18 0.78136845)
(308.3096 1.0059382e-17 0.53829926)
(306.95845 -1.0651422e-16 0.90524863)
(307.30617 -3.0710551e-17 0.7595332)
(306.25626 -9.0589409e-17 0.91420447)
(306.52146 9.4617422e-17 0.85040622)
(305.73367 1.0318061e-16 0.82349048)
(305.92954 1.4880092e-16 0.82518497)
(305.35767 2.7381802e-16 0.65291399)
(305.49691 -9.1890619e-17 0.70045287)
(305.10167 2.8130878e-16 0.42622745)
(305.1918 8.8294873e-18 0.50645726)
(304.94773 1.2579447e-16 0.16489508)
(304.99681 9.8731811e-17 0.26764732)
(304.87397 -6.7523178e-18 -0.12327523)
(304.89161 1.0403206e-17 -0.0046115606)
(304.85643 1.6164778e-16 -0.41440498)
(304.85186 -7.6482126e-18 -0.30528538)
(304.88156 2.0592033e-16 -0.66636419)
(304.85412 -1.0023842e-17 -0.58331085)
(304.92848 1.6750928e-16 -0.81571137)
(304.90384 2.6493377e-16 -0.78382359)
(304.97236 2.1648611e-16 -0.71729132)
(304.94042 -1.8725773e-16 -0.87226078)
(304.98524 -5.8619089e-17 -0.27840597)
(304.97284 -9.2867225e-18 -0.72490424)
(304.85597 -1.0104626e-16 -0.32774677)
(304.87578 -5.3879896e-17 -0.45703629)
(304.84535 -4.3221926e-17 -0.09161705)
(204.01038 -6.6074599e-17 5.4454881)
(189.39611 -5.9446065e-17 4.4514939)
(232.941 6.262386e-17 6.1157398)
(223.22031 8.82007e-17 5.4977568)
(255.01969 2.1025178e-17 6.5696816)
(246.214 3.2302625e-17 5.9009463)
(276.23996 -6.6061384e-17 6.9588952)
(267.28414 -2.9133116e-17 6.312341)
(298.39841 -9.3204267e-19 7.30747)
(288.85168 -2.7816065e-17 6.4930735)
(312.91621 -4.4494713e-20 7.4640316)
(311.65511 1.4378343e-18 7.0700086)
(316.83255 3.0385564e-17 7.5366561)
(315.31218 -2.0712614e-20 6.4296303)
(317.4748 2.4152657e-17 7.5387801)
(318.69618 3.0961342e-17 7.5846219)
(316.91669 -1.2198776e-17 7.5139486)
(316.01919 -1.3372068e-17 6.0571034)
(317.33711 5.202254e-18 7.5110705)
(317.95927 -5.8886982e-18 7.781725)
(317.12339 2.5612609e-18 7.4899477)
(316.53298 -1.0775609e-19 5.9045689)
(317.45181 -2.9829849e-18 7.478498)
(317.75702 4.0132872e-18 7.7022133)
(317.42774 -3.5809586e-18 7.4242777)
(317.01679 3.4684395e-18 5.9086333)
(317.75679 -5.2070501e-19 7.3436192)
(317.87277 -4.9069154e-18 7.3798057)
(317.89181 3.7228626e-18 7.2197323)
(317.56611 -1.1515624e-18 5.9075073)
(318.24872 6.3250424e-18 7.0715386)
(318.21248 4.734765e-18 6.8824054)
(318.51195 -9.6299091e-18 6.870432)
(318.18055 1.1951612e-18 5.7835028)
(318.93684 -2.1359969e-17 6.61505)
(318.77878 1.2902573e-17 6.2256693)
(319.33823 -9.8502728e-18 6.2737986)
(319.00645 -1.1212098e-17 5.3820758)
(319.86021 1.153457e-17 5.8393757)
(319.60301 3.9075456e-18 5.336744)
(320.37596 3.3344774e-17 5.271202)
(320.03689 3.5466256e-17 4.5366339)
(320.94516 2.3477666e-17 4.5767068)
(320.66946 1.5677547e-17 4.0356307)
(321.45131 6.9831104e-18 3.6967743)
(321.19559 4.5822557e-18 3.0890266)
(321.86302 2.7445792e-18 2.6746537)
(321.74191 1.5576427e-17 2.1638988)
(322.07867 -6.9740203e-18 1.5225757)
(322.09894 -1.2808926e-17 0.98137915)
(322.03374 -7.4552769e-17 0.32432409)
(322.2321 0 -0.20898815)
(321.60048 -7.7292678e-17 -0.79022951)
(321.96519 2.6407446e-18 -1.3883862)
(320.67905 1.1291601e-17 -1.6537706)
(321.23423 7.8701205e-17 -2.3255803)
(319.29293 -6.9420802e-18 -2.1537003)
(320.0038 -2.5985852e-17 -2.9062931)
(317.56436 6.1779477e-17 -2.2561144)
(318.36679 1.0625866e-17 -3.0505184)
(315.65515 -2.2521625e-17 -2.0119299)
(316.47721 -7.1766173e-17 -2.8041293)
(313.73465 -1.2242834e-16 -1.5328163)
(314.51786 -1.0994607e-16 -2.2700851)
(311.93287 -1.228868e-16 -0.94919068)
(312.64153 -1.1248653e-17 -1.5957645)
(310.33228 -3.3120904e-16 -0.37079648)
(310.94367 -6.2840677e-18 -0.90137)
(308.97164 -2.3142583e-16 0.11935556)
(309.48391 -1.9975501e-16 -0.28227922)
(307.84859 -1.1310739e-17 0.47197394)
(308.26872 -1.8631757e-16 0.1924181)
(306.94941 1.5566739e-16 0.67943333)
(307.28137 3.1361853e-17 0.50533999)
(306.25525 3.2690277e-16 0.75185423)
(306.50884 1.6315073e-16 0.6662821)
(305.73747 -1.8832683e-17 0.70819256)
(305.92525 1.4821381e-16 0.69359987)
(305.36315 -3.6740698e-16 0.57175618)
(305.49723 -2.0745e-16 0.60708241)
(305.10679 -1.8355853e-16 0.37009411)
(305.19401 1.5479705e-16 0.44139972)
(304.95144 -6.5492951e-18 0.12602111)
(304.99925 2.8880731e-20 0.22306584)
(304.87466 1.1565584e-17 -0.15147872)
(304.89314 -3.3253072e-16 -0.036562602)
(304.85195 -1.7946318e-16 -0.43631591)
(304.84943 0 -0.33036054)
(304.87141 1.7832304e-17 -0.68155965)
(304.84712 -1.9156845e-16 -0.60169842)
(304.91294 -4.0285266e-17 -0.82741275)
(304.89369 -2.6041317e-16 -0.79655068)
(304.96434 -4.3528144e-16 -0.68058729)
(304.9223 -3.89837e-16 -0.88136806)
(304.96582 -4.1934609e-18 -0.31919667)
(304.94775 -2.8581798e-16 -0.72823411)
(304.85969 3.8682438e-18 -0.30008786)
(304.87716 -3.3072912e-18 -0.43215993)
(304.84303 -1.6826885e-16 -0.05890348)
(205.49802 7.9342056e-17 4.660533)
(190.68077 -9.926825e-19 3.6956035)
(234.44119 6.2919929e-17 5.2240158)
(224.59931 8.6483914e-17 4.6042663)
(256.57197 -1.192049e-17 5.5951907)
(247.67236 -3.4718545e-17 4.9207232)
(277.92224 8.1196496e-18 5.9032159)
(268.84844 3.0335958e-17 5.2666686)
(300.01058 -2.7771994e-17 6.1547736)
(290.63275 -1.2627842e-17 5.3280565)
(313.68515 1.5704224e-18 6.2408915)
(312.99864 -1.0423282e-17 5.864943)
(316.8452 -1.8679007e-18 6.2828142)
(315.2791 -1.0107416e-17 5.1167571)
(317.4882 -2.2397214e-18 6.276595)
(318.67741 6.3775714e-18 6.3502155)
(316.94693 -7.7892361e-18 6.242304)
(315.9709 -3.523486e-18 4.6999173)
(317.39866 -1.1520374e-17 6.2102718)
(317.98741 -5.5529208e-18 6.5154979)
(317.20167 9.8852087e-19 6.1500568)
(316.54826 2.5147297e-18 4.4952479)
(317.55484 1.036129e-17 6.0860025)
(317.80849 5.9589594e-18 6.3522923)
(317.53919 2.8328776e-18 5.9796468)
(317.08413 7.389722e-18 4.4292446)
(317.86561 -5.8219319e-18 5.8597213)
(317.96185 -4.2507527e-18 5.9383801)
(317.99073 -6.3144902e-19 5.7028135)
(317.64347 -4.2345046e-19 4.3831764)
(318.34992 0 5.5157626)
(318.30915 0 5.3597614)
(318.62019 2.227775e-17 5.2639534)
(318.28974 -9.9983957e-18 4.1957566)
(319.0533 2.4753561e-17 4.9560589)
(318.90376 1.8959205e-18 4.5996079)
(319.46129 1.0216927e-18 4.5586122)
(319.14543 -2.3359557e-17 3.6937503)
(319.97722 2.4741816e-17 4.0557307)
(319.76683 -1.4312164e-19 3.5848261)
(320.47432 1.9800185e-17 3.4186783)
(320.2126 -8.4135825e-19 2.7219409)
(321.02133 -1.9093354e-18 2.6498385)
(320.85445 -5.4390473e-18 2.1450489)
(321.53621 1.2071595e-17 1.7189242)
(321.39101 -2.8497656e-17 1.1296011)
(321.99778 2.7938886e-18 0.64815)
(321.93633 3.8498034e-18 0.14242279)
(322.25525 -7.0898123e-18 -0.52956377)
(322.27923 -6.3991859e-18 -1.0759431)
(322.18722 7.5700514e-17 -1.7044475)
(322.37482 -8.5426e-17 -2.2653159)
(321.67541 1.4918e-16 -2.7330153)
(322.05071 6.8945792e-17 -3.3829957)
(320.6846 5.1826286e-17 -3.448933)
(321.24799 -1.8796527e-18 -4.1925296)
(319.24187 -1.2176056e-17 -3.7497912)
(319.94887 -1.2901393e-17 -4.585721)
(317.4687 -1.1320591e-16 -3.6201173)
(318.25968 1.048745e-17 -4.5025395)
(315.53667 -1.5432829e-16 -3.1375438)
(316.34143 -1.3867582e-16 -4.0139918)
(313.61429 -9.9883699e-18 -2.4350986)
(314.37632 0 -3.2476745)
(311.82522 1.0379933e-16 -1.6555178)
(312.51173 2.4761233e-19 -2.3666141)
(310.24486 1.4441348e-16 -0.91221239)
(310.83525 4.0415341e-16 -1.4965656)
(308.90685 -1.5645716e-16 -0.28818847)
(309.4008 4.3668901e-16 -0.73294477)
(307.80488 -1.6734782e-16 0.16979797)
(308.21069 -3.5265808e-16 -0.14381835)
(306.92259 2.4341191e-17 0.45824973)
(307.24396 -2.2966057e-16 0.25760157)
(306.24087 -1.3054531e-17 0.59216194)
(306.48708 1.2272352e-19 0.48616591)
(305.73129 -3.9681866e-20 0.59420688)
(305.91447 1.7699805e-17 0.56422037)
(305.36151 2.7273667e-16 0.49113579)
(305.49303 6.2837016e-16 0.51483873)
(305.10725 3.5560144e-16 0.3140247)
(305.19318 -3.3883735e-16 0.37687967)
(304.9524 -2.8800186e-16 0.086887661)
(304.99976 5.1021722e-16 0.17860378)
(304.87398 -3.8215458e-16 -0.18025433)
(304.89338 -3.1593225e-17 -0.068882392)
(304.84722 9.9361243e-18 -0.45907034)
(304.84587 0 -0.35588385)
(304.86238 -4.6322831e-16 -0.69665948)
(304.83941 -3.4534377e-16 -0.62081725)
(304.91391 -5.9694871e-16 -0.77852183)
(304.87926 -2.6810371e-16 -0.80904487)
(304.95617 -2.5124096e-16 -0.6616496)
(304.90532 5.7315462e-16 -0.88896084)
(304.95128 -3.1622605e-16 -0.3606692)
(304.92649 -2.7532071e-16 -0.72961411)
(304.85682 -1.5943082e-16 -0.27246568)
(304.87799 -1.3652713e-17 -0.40678247)
(304.83992 -8.5868495e-18 -0.026560394)
(206.61207 -1.0643163e-18 3.8164802)
(191.75932 -9.6132647e-19 2.9195057)
(235.73772 5.1687148e-19 4.2621328)
(225.81102 -7.1447421e-19 3.6849289)
(258.00807 1.5066194e-18 4.5462866)
(248.98852 1.7300897e-18 3.9034558)
(279.56542 1.3410004e-17 4.772502)
(270.28506 -1.5100328e-17 4.1838278)
(301.60527 4.1471787e-18 4.9309029)
(292.35747 3.9613376e-17 4.1103395)
(314.44168 -2.185525e-17 4.9595249)
(314.20278 -1.4574785e-17 4.6157849)
(316.91525 -3.3344784e-18 4.9708699)
(315.26705 -1.7561657e-17 3.7527685)
(317.55517 5.8958416e-18 4.9434364)
(318.73487 -3.3253735e-19 5.0599441)
(317.00901 -1.1809449e-18 4.8872617)
(316.00055 1.1206233e-19 3.2734698)
(317.47314 7.5354175e-18 4.8256825)
(318.09439 5.8167693e-18 5.1861571)
(317.25876 7.0985074e-18 4.7372362)
(316.62453 2.2934942e-18 3.0277994)
(317.6218 2.9570101e-18 4.6369748)
(317.92977 -1.6425326e-18 4.9595521)
(317.61697 1.3895451e-18 4.5058033)
(317.18001 -6.1109772e-18 2.928328)
(317.94789 7.1108412e-19 4.3621102)
(318.06863 7.409219e-18 4.4851035)
(318.07892 1.6031914e-19 4.1780054)
(317.73773 -1.0739909e-17 2.853878)
(318.44267 -8.9800493e-18 3.9593369)
(318.42154 2.0317142e-18 3.8290736)
(318.70746 -3.0879834e-17 3.6577567)
(318.42699 2.0995886e-18 2.6057796)
(319.12659 -4.3132493e-17 3.3038905)
(319.0411 -3.3272781e-17 2.9762717)
(319.51996 -2.6399962e-17 2.8446953)
(319.30081 -1.5883524e-18 2.0117609)
(320.04168 -2.5135137e-17 2.2873113)
(319.93149 -3.8886782e-18 1.8380394)
(320.58461 -2.5171574e-17 1.5855128)
(320.39673 -2.2767626e-17 0.90960568)
(321.18956 -2.956714e-17 0.73920634)
(321.04673 -4.5581896e-17 0.2556172)
(321.73532 -3.9333108e-17 -0.26548608)
(321.58626 4.4466982e-17 -0.82912272)
(322.17658 -4.2715382e-18 -1.3917494)
(322.11713 4.3657419e-18 -1.8833133)
(322.38765 -7.6386165e-17 -2.5893121)
(322.43252 -6.7581976e-18 -3.1381991)
(322.2677 -1.0602528e-16 -3.7330335)
(322.47708 -8.4470632e-17 -4.322423)
(321.69846 -7.3262641e-17 -4.6689819)
(322.08409 -4.2886764e-18 -5.3697442)
(320.63642 -6.4621622e-17 -5.2288682)
(321.20168 -7.1488687e-17 -6.0415802)
(319.13066 7.1900892e-18 -5.3211958)
(319.83119 -1.1633345e-16 -6.2375637)
(317.31894 0 -4.9547906)
(318.09237 1.0991391e-17 -5.9207364)
(315.37313 0 -4.2333706)
(316.15207 0 -5.1887305)
(313.45763 1.0109012e-17 -3.3101894)
(314.18976 0 -4.1926019)
(311.68896 2.5593598e-16 -2.3389032)
(312.34563 1.1277592e-17 -3.1095095)
(310.13548 6.9071795e-16 -1.4354757)
(310.69832 -1.3652438e-17 -2.06929)
(308.82582 3.2634416e-16 -0.68209908)
(309.29586 2.134224e-16 -1.1664142)
(307.74948 -4.2787716e-16 -0.12275166)
(308.13631 1.4936363e-16 -0.46757635)
(306.88745 -2.7893436e-16 0.24347945)
(307.19452 2.5738568e-16 0.018413499)
(306.22072 2.8799582e-17 0.43646178)
(306.45658 -1.7102805e-19 0.31159147)
(305.72123 5.7578586e-16 0.48253541)
(305.89745 -5.4148309e-16 0.43816907)
(305.35729 1.2715393e-16 0.41181183)
(305.48447 1.9371472e-16 0.42454807)
(305.10599 -2.8081097e-16 0.25860251)
(305.18944 -3.0735695e-16 0.31349763)
(304.95216 8.2867595e-16 0.047960821)
(304.99846 2.8136233e-17 0.13464456)
(304.87208 3.4734654e-16 -0.20923207)
(304.89232 -2.0167279e-17 -0.10130719)
(304.84118 -3.1637222e-16 -0.48238216)
(304.84111 0 -0.38159649)
(304.85012 -1.5804575e-16 -0.71187148)
(304.83116 8.1263858e-18 -0.64064624)
(304.91594 8.1304345e-16 -0.71650968)
(304.85948 2.634334e-16 -0.82123877)
(304.95135 6.4809957e-16 -0.63605753)
(304.89106 1.9548456e-16 -0.89489322)
(304.93636 6.6324124e-18 -0.40766728)
(304.91321 2.9229025e-16 -0.72948838)
(304.85494 1.3948548e-16 -0.24728278)
(304.87732 -6.8196604e-18 -0.38120816)
(304.83695 1.6654774e-16 0.0053720076)
(207.81017 -6.3950994e-19 2.9678672)
(192.76262 1.0205997e-18 2.0805935)
(237.05602 2.8087685e-19 3.2939481)
(227.02381 2.3307315e-17 2.7623924)
(259.44107 -1.3185679e-17 3.4832147)
(250.32934 -1.9096444e-17 2.8504988)
(281.20727 6.2427833e-18 3.6147494)
(271.7606 -1.5694329e-17 3.0607222)
(303.13971 2.5539543e-17 3.66499)
(294.16817 2.7379114e-17 2.8338271)
(315.11271 -1.0141268e-17 3.6324472)
(315.3481 1.6665542e-18 3.3150186)
(316.96788 -1.5970811e-17 3.6096859)
(315.33995 -1.5334784e-17 2.3349661)
(317.61134 -6.0126446e-18 3.5623849)
(318.85831 -4.0191158e-18 3.727021)
(317.06905 6.5146982e-18 3.4887105)
(316.09037 3.4806961e-18 1.8067205)
(317.54622 9.7697181e-19 3.4103332)
(318.23404 6.4166727e-19 3.8267831)
(317.33083 -5.9348114e-18 3.3043403)
(316.73165 -3.053865e-18 1.5406235)
(317.70421 -1.0136479e-17 3.1816808)
(318.07899 -3.5452549e-18 3.5599691)
(317.6841 -1.2902531e-18 3.033372)
(317.28339 -6.770221e-18 1.4315881)
(318.01027 -2.3577877e-18 2.8725115)
(318.17701 -2.0933851e-18 3.0354776)
(318.13092 -9.9282395e-18 2.6545482)
(317.85339 -3.264795e-18 1.3286285)
(318.4878 1.2854711e-17 2.4006856)
(318.54888 -1.0362551e-17 2.2998376)
(318.76576 2.6018446e-18 2.0676695)
(318.5669 8.184616e-18 1.0178203)
(319.22554 4.8089076e-18 1.6646142)
(319.19672 1.1973047e-17 1.3483411)
(319.67135 2.0638934e-17 1.1437553)
(319.47761 1.8680502e-17 0.32607111)
(320.23412 0 0.51300135)
(320.1178 0 0.085314429)
(320.78779 -4.0871905e-17 -0.26618926)
(320.59464 6.9337161e-18 -0.91139081)
(321.38039 1.9418335e-17 -1.1864958)
(321.24427 4.2336896e-17 -1.6450486)
(321.91038 9.0815706e-17 -2.2576393)
(321.77829 3.1372703e-17 -2.797712)
(322.33215 2.9062265e-18 -3.4341167)
(322.28553 1.2159292e-17 -3.9150567)
(322.50749 -7.7531784e-18 -4.6482159)
(322.56115 -6.6426071e-18 -5.2012447)
(322.32229 8.382506e-18 -5.7566564)
(322.54122 9.404573e-17 -6.3730707)
(321.66835 3.6894003e-18 -6.5893829)
(322.06697 9.7690822e-18 -7.3402588)
(320.52605 -1.1826855e-16 -6.9814311)
(321.09707 -7.923459e-18 -7.8624268)
(318.95896 -1.2485995e-16 -6.8570082)
(319.653 -2.467293e-17 -7.8509101)
(317.112 1.2073645e-17 -6.2502852)
(317.86759 -1.6014245e-16 -7.2952423)
(315.15904 0 -5.2909455)
(315.91201 0 -6.3198792)
(313.2588 0 -4.1512012)
(313.96089 0 -5.0979882)
(311.5189 -2.5346373e-16 -2.9939869)
(312.14554 3.7141501e-16 -3.8190811)
(309.99967 -5.1132977e-16 -1.9365125)
(310.53476 -2.8342984e-16 -2.6154441)
(308.72451 4.4666684e-17 -1.0593368)
(309.1705 -2.1886988e-16 -1.5796097)
(307.67881 8.1904574e-16 -0.40343275)
(308.04663 -4.7457659e-18 -0.77658465)
(306.84101 5.6315978e-16 0.036738228)
(307.13379 2.5034428e-16 -0.21057121)
(306.1923 -5.0805462e-16 0.28589419)
(306.41784 3.4760601e-16 0.14373885)
(305.7052 -1.0052729e-15 0.37397217)
(305.87448 5.8250835e-16 0.31627707)
(305.34892 -1.8296045e-16 0.33432065)
(305.47172 1.5233436e-17 0.33680423)
(305.10205 -3.7199213e-17 0.20416829)
(305.18291 3.2824584e-16 0.25165957)
(304.95022 -8.1551421e-16 0.0094352781)
(304.99543 6.6564207e-20 0.091397432)
(304.86888 -3.7035903e-16 -0.23830028)
(304.88989 -9.1238831e-19 -0.1337037)
(304.83433 3.2468407e-16 -0.50590038)
(304.83507 -7.5539288e-18 -0.4073221)
(304.83673 4.0162037e-16 -0.72759919)
(304.82267 3.1786456e-18 -0.66082967)
(304.91157 -3.4951388e-16 -0.67249131)
(304.83723 -1.0440884e-19 -0.833014)
(304.94771 -1.7514987e-16 -0.59713686)
(304.87931 -6.8200071e-18 -0.89920727)
(304.9165 3.1650651e-16 -0.46247511)
(304.90831 2.8631178e-16 -0.72796927)
(304.84956 0 -0.23578788)
(304.87939 -3.2424126e-18 -0.35594969)
(304.83442 2.4414879e-18 0.037044384)
(208.90075 2.2612031e-17 2.0820454)
(193.77004 2.030732e-18 1.1807215)
(238.32506 7.6709615e-18 2.2797483)
(228.24611 1.0125587e-17 1.8155576)
(260.85211 -2.1809469e-17 2.3686377)
(251.69594 -3.6553596e-19 1.7517488)
(282.83739 1.5999341e-18 2.3990671)
(273.28664 -8.3375829e-18 1.8895702)
(304.60219 6.0489831e-18 2.3398826)
(296.03436 5.363147e-18 1.5043293)
(315.70766 -2.0793823e-18 2.2536965)
(316.40555 -1.7387881e-18 1.9768644)
(317.03098 -4.5340558e-18 2.2128783)
(315.4165 -6.3185228e-18 0.88653853)
(317.68731 4.6715741e-18 2.1535365)
(319.00231 5.334358e-18 2.379959)
(317.14186 -2.0349486e-18 2.0706356)
(316.19575 -4.6070369e-19 0.32857805)
(317.62196 -3.0076517e-18 1.9839868)
(318.36718 -1.8296349e-18 2.4632604)
(317.4062 -6.7922677e-19 1.8675827)
(316.84105 -5.7424735e-18 0.053243391)
(317.7651 0 1.7349551)
(318.22506 8.5607152e-18 2.166987)
(317.73245 -7.9261374e-18 1.5779815)
(317.38011 0 -0.060285156)
(318.08081 -2.8959221e-18 1.3925211)
(318.30365 -8.6426686e-18 1.5796242)
(318.23229 -3.1272717e-18 1.1425773)
(317.99106 7.2180505e-18 -0.20493617)
(318.62869 -1.6433062e-17 0.84572458)
(318.70325 4.6553607e-18 0.75842017)
(318.93656 1.7055806e-17 0.46087612)
(318.73504 -3.3605635e-18 -0.58276774)
(319.40802 2.5008251e-17 0.00019456368)
(319.37374 2.8561456e-17 -0.29849162)
(319.85678 0 -0.58160776)
(319.66873 -4.9138256e-18 -1.377793)
(320.42009 6.2201452e-18 -1.2784379)
(320.31314 4.1916356e-18 -1.6865507)
(320.98037 8.557965e-17 -2.1284631)
(320.79781 -5.2852903e-17 -2.7475471)
(321.57486 5.497439e-17 -3.1206762)
(321.44111 -9.2443734e-18 -3.5582951)
(322.09112 -4.4199908e-17 -4.25767)
(321.96218 -1.1835598e-16 -4.7760273)
(322.47394 4.4406244e-18 -5.4808528)
(322.43541 -6.8019191e-17 -5.9531123)
(322.58778 8.4491059e-17 -6.7041332)
(322.65885 1.1489293e-16 -7.2643435)
(322.32354 1.0309914e-16 -7.7659832)
(322.56173 -4.1452385e-18 -8.4133104)
(321.58232 0 -8.4837372)
(321.99509 0 -9.2864492)
(320.35659 8.602715e-17 -8.6963225)
(320.93154 1.3679051e-16 -9.6452611)
(318.72825 -4.6383149e-17 -8.3469499)
(319.41343 9.5256763e-17 -9.4160183)
(316.85192 -1.8791001e-16 -7.4973924)
(317.58608 3.831852e-18 -8.6170165)
(314.89999 0 -6.302623)
(315.62298 -2.9036828e-16 -7.3996596)
(313.02347 3.2972625e-16 -4.952081)