/*--------------------------------*- C++ -*----------------------------------*\
  =========                 |
  \\      /  F ield         | OpenFOAM: The Open Source CFD Toolbox
   \\    /   O peration     | Website:  https://openfoam.org
    \\  /    A nd           | Version:  8
     \\/     M anipulation  |
\*---------------------------------------------------------------------------*/
FoamFile
{
    version     2.0;
    format      ascii;
    class       volScalarField;
    location    "0.250004";
    object      T;
}
// * * * * * * * * * * * * * * * * * * * * * * * * * * * * * * * * * * * * * //

dimensions      [0 0 0 1 0 0 0];

internalField   nonuniform List<scalar> 
20000
(
283.09098
282.98332
281.9668
279.77028
275.59797
267.63672
263.09058
262.02395
263.03698
262.67698
263.3484
263.24785
263.79665
263.90879
264.42481
264.73093
265.31548
265.84875
266.60778
267.43726
268.48375
269.69575
271.13606
272.81845
274.78772
276.97504
279.34755
281.82499
284.2951
286.63371
288.75532
290.60696
292.16555
293.44473
294.46905
295.28066
295.91421
296.40348
296.77837
297.06892
297.3027
297.49051
297.64659
297.79094
297.94358
298.07224
298.236
298.31964
298.48591
298.32194
282.13982
281.82484
280.67118
278.3046
273.91684
265.64292
261.86567
260.91949
261.94821
261.59387
262.28375
262.19153
262.7587
262.88649
263.42498
263.75941
264.37748
264.95595
265.76557
266.65912
267.77817
269.09341
270.66711
272.48315
274.55133
276.83969
279.272
281.77719
284.26783
286.62512
288.7594
290.61727
292.17941
293.45928
294.48021
295.28696
295.91798
296.406
296.78018
297.0714
297.30723
297.49695
297.65527
297.80413
297.95925
298.09602
298.23804
298.37044
298.47657
298.28965
281.47212
281.01693
279.74524
277.22545
272.6033
264.07783
260.98215
260.1324
261.17943
260.82509
261.53287
261.44964
262.03244
262.17995
262.74248
263.11418
263.77122
264.39966
265.25933
266.21658
267.40717
268.78443
270.40531
272.26769
274.38754
276.72825
279.21428
281.76986
284.28805
286.67834
288.83254
290.69396
292.24933
293.51767
294.52679
295.32252
295.94471
296.42608
296.79592
297.08467
297.31869
297.50688
297.66459
297.81444
297.97024
298.10439
298.2464
298.36916
298.48043
298.28465
280.98282
280.41881
279.05245
276.38966
271.53016
262.90556
260.40713
259.6134
260.67739
260.32413
261.04994
260.9759
261.57876
261.74579
262.33487
262.74235
263.4359
264.11654
265.01847
266.02022
267.23898
268.64996
270.30796
272.20271
274.34951
276.72083
279.23146
281.82399
284.3877
286.7928
288.94563
290.79595
292.33561
293.58701
294.5798
295.36122
295.97278
296.44653
296.81129
297.09738
297.32997
297.51711
297.67482
297.82684
297.98417
298.11971
298.25586
298.3772
298.476
298.27197
280.72668
280.04723
278.57884
275.77144
270.63667
261.9555
260.05487
259.27958
260.3646
260.00694
260.74752
260.68952
261.31083
261.50895
262.13091
262.57207
263.28502
263.98889
264.90749
265.93461
267.17101
268.60164
270.27704
272.19171
274.35893
276.76085
279.34013
281.98188
284.56416
286.97118
289.11162
290.9402
292.45437
293.68076
294.65128
295.41395
296.01128
296.47464
296.83236
297.11428
297.34404
297.52899
297.68595
297.83952
297.99774
298.13463
298.26695
298.37792
298.47248
298.26526
280.42385
279.71473
278.19318
275.26041
269.84312
261.19018
259.85451
259.08541
260.20241
259.84488
260.60944
260.57068
261.19555
261.41448
262.03928
262.49649
263.21945
263.93936
264.86698
265.91149
267.16025
268.60774
270.30102
272.26116
274.48564
276.94246
279.55673
282.22289
284.81294
287.20607
289.31958
291.11506
292.59538
293.79069
294.73424
295.47471
296.05535
296.50661
296.85605
297.13297
297.35937
297.54171
297.69797
297.85328
298.01224
298.15253
298.27758
298.37925
298.46667
298.25743
280.38304
279.56088
277.95115
274.8801
269.13208
260.58429
259.77319
258.99711
260.12765
259.77623
260.55027
260.5117
261.1501
261.37454
262.00358
262.47331
263.20174
263.93526
264.87034
265.93162
267.20838
268.70374
270.44736
272.45385
274.71971
277.21606
279.86505
282.54632
285.12732
287.49369
289.56899
291.3217
292.76027
293.9184
294.83037
295.54515
296.10647
296.54366
296.88343
297.15432
297.37647
297.55555
297.711
297.86796
298.02721
298.17019
298.28675
298.37804
298.46078
298.24975
280.27993
279.39816
277.7301
274.54038
268.43203
260.07699
259.73858
258.96019
260.0945
259.74087
260.52531
260.49436
261.14126
261.37258
262.00294
262.48395
263.21879
263.98051
264.94493
266.04916
267.36325
268.89794
270.68195
272.73544
275.04822
277.58444
280.25507
282.93808
285.49902
287.82686
289.85345
291.55479
292.94493
294.06081
294.93729
295.62344
296.16325
296.58478
296.91374
297.17777
297.39494
297.57029
297.72512
297.88381
298.04314
298.18563
298.2919
298.37377
298.44765
298.24025
280.23935
279.27581
277.53753
274.234
267.73456
259.64926
259.73966
258.94404
260.08993
259.7361
260.5238
260.49083
261.15889
261.40614
262.04991
262.55994
263.31715
264.11058
265.10021
266.23931
267.58954
269.16991
271.00086
273.10199
275.45789
278.02817
280.71585
283.39171
285.92136
288.20047
290.16936
291.81187
293.14768
294.21678
295.05431
295.70917
296.22545
296.62985
296.94696
297.20332
297.41475
297.58598
297.74045
297.90092
298.06009
298.19742
298.29509
298.37025
298.42406
298.22816
280.16189
279.1537
277.34894
273.94235
267.03771
259.30797
259.78076
258.95553
260.12461
259.77027
260.57511
260.55832
261.23927
261.50789
262.16409
262.69847
263.47273
264.29752
265.31562
266.49429
267.88336
269.50846
271.38563
273.53564
275.93635
278.53906
281.23697
283.89692
286.38626
288.60782
290.51136
292.0888
293.36545
294.38411
295.17984
295.80117
296.29227
296.67832
296.98272
297.23071
297.43573
297.60256
297.75706
297.91958
298.07757
298.20639
298.29711
298.36933
298.38745
298.21294
280.19375
279.10157
277.2166
273.7047
266.3882
259.07681
259.87113
259.06804
260.21836
259.89077
260.68261
260.6953
261.36812
261.65741
262.3258
262.88679
263.68033
264.53738
265.58392
266.80138
268.23044
269.90353
271.83053
274.03126
276.47636
279.10839
281.81125
284.4475
286.88784
289.04393
290.87545
292.3825
293.59593
294.56112
295.31266
295.89862
296.36311
296.72981
297.02075
297.25973
297.45777
297.62008
297.77503
297.94016
298.09519
298.21388
298.29829
298.36919
298.3434
298.19569
280.22612
279.06107
277.09291
273.47893
265.76814
258.93784
260.00031
259.18139
260.35549
260.02544
260.8391
260.86287
261.54113
261.84998
262.52935
263.11639
263.92865
264.81849
265.89508
267.15358
268.62528
270.34809
272.32692
274.58002
277.06987
279.7285
282.43033
285.03528
287.41899
289.50281
291.2568
292.68925
293.83637
294.74578
295.45132
296.00044
296.43724
296.78382
297.06074
297.29011
297.48073
297.63857
297.79437
297.96288
298.11332
298.22048
298.29758
298.36473
298.29762
298.17842
280.29098
279.04336
276.98304
273.26193
265.18735
258.88225
260.16226
259.34528
260.52962
260.20413
261.02682
261.05862
261.74477
262.07475
262.76586
263.38044
264.2129
265.13671
266.24509
267.54616
269.06297
270.83832
272.87191
275.179
277.71294
280.39445
283.08902
285.65503
287.97471
289.98004
291.65173
293.00612
294.0845
294.93641
295.59458
296.10574
296.51401
296.8399
297.1024
297.32163
297.50453
297.65814
297.81511
297.98757
298.13169
298.22688
298.29291
298.35515
298.25299
298.16184
280.36303
279.03817
276.87373
273.03297
264.6495
258.89714
260.34534
259.52875
260.72758
260.4049
261.23912
261.28354
261.97671
262.32928
263.03225
263.67532
264.52876
265.48776
266.62975
267.97545
269.54018
271.3704
273.46107
275.8232
278.40005
281.10003
283.78052
286.30004
288.54888
290.47041
292.056
293.32979
294.33783
295.13115
295.74107
296.2135
296.59271
296.89758
297.14542
297.3541
297.52904
297.6789
297.83736
298.01336
298.14834
298.23356
298.28695
298.33522
298.21185
298.14625
280.47459
279.06313
276.77517
272.78141
264.16614
258.97447
260.54977
259.73812
260.94887
260.63188
261.47214
261.53324
262.23368
262.6099
263.32536
263.99793
264.87379
265.86943
267.0473
268.43987
270.05538
271.94316
274.09322
276.51111
279.12867
281.84176
284.50066
286.96592
289.13731
290.9702
292.46647
293.65771
294.59436
295.32849
295.88962
296.32287
296.67271
296.9564
297.18946
297.38737
297.55421
297.70097
297.86139
298.0378
298.16203
298.23797
298.28482
298.30206
298.17677
298.13209
280.60537
279.10285
276.67939
272.49332
263.7449
259.10399
260.77655
259.96798
261.18996
260.88073
261.72691
261.80669
262.51391
262.91492
263.64324
264.34655
265.24615
266.27986
267.49598
268.93769
270.60681
272.55445
274.76579
277.23928
279.89443
282.61426
285.24358
287.64689
289.7348
291.47496
292.8795
293.98702
294.85192
295.52679
296.03901
296.43293
296.75338
297.01592
297.23415
297.42124
297.57998
297.72441
297.88768
298.05979
298.17268
298.24018
298.28459
298.26068
298.14954
298.11989
280.75486
279.16435
276.59405
272.16466
263.3966
259.28341
261.02461
260.22006
261.44867
261.1516
262.00237
262.10161
262.81548
263.24234
263.98445
264.71952
265.64465
266.71822
267.97529
269.46865
271.19428
273.20418
275.47845
278.00683
280.69527
283.4145
286.00561
288.33918
290.33783
291.98159
293.29249
294.31564
295.10885
295.72474
296.18822
296.5429
296.83414
297.07573
297.27914
297.45533
297.60629
297.74909
297.9163
298.07922
298.18124
298.24165
298.28514
298.21907
298.1256
298.1094
280.92174
279.2445
276.51968
271.78623
263.12453
259.49737
261.29182
260.49117
261.72502
261.44145
262.29609
262.41642
263.13698
263.59121
264.34787
265.11621
266.06864
267.18387
268.4846
270.032
271.81685
273.8911
276.22939
278.81086
281.52717
284.23746
286.78146
289.03776
290.94192
292.48635
293.70243
294.6412
295.36335
295.92096
296.33621
296.65198
296.91443
297.13544
297.32419
297.48943
297.633
297.77479
297.9462
298.0974
298.18911
298.24284
298.28593
298.18069
298.10341
298.0998
281.10826
279.34579
276.46143
271.35733
262.93514
259.75524
261.57697
260.77915
262.01733
261.749
262.60709
262.75021
263.47781
263.96066
264.73303
265.53581
266.51778
267.6768
269.02415
270.62806
272.47492
274.61564
277.01865
279.6505
282.38803
285.0802
287.56777
289.73935
291.54412
292.98672
294.10726
294.96206
295.6141
296.11441
296.48216
296.75954
296.99379
297.1947
297.36901
297.52347
297.66009
297.80129
297.97614
298.11533
298.19731
298.24351
298.2843
298.14803
298.08343
298.09076
281.30546
279.4609
276.41344
270.87077
262.82307
260.05009
261.87614
261.08269
262.32458
262.07386
262.93507
263.10267
263.83737
264.35017
265.13936
265.97834
266.99217
268.19704
269.59384
271.25658
273.16808
275.37706
277.84463
280.52283
283.27368
285.93782
288.35966
290.43947
292.14061
293.47959
294.50453
295.27631
295.85962
296.304
296.62522
296.86492
297.07173
297.25319
297.41335
297.55724
297.68754
297.82858
298.00493
298.13272
298.20623
298.24384
298.27486
298.12199
298.06493
298.08129
281.51422
279.59
276.37943
270.33865
262.79085
260.34341
262.188
261.40354
262.64777
262.4163
263.27971
263.47318
264.2152
264.75935
265.56693
266.44376
267.49206
268.74501
270.19417
271.91821
273.89711
276.17604
278.70728
281.42661
284.18171
286.80727
289.15394
291.13519
292.72891
293.96293
294.8926
295.58263
296.0989
296.48902
296.76473
296.96765
297.14786
297.31063
297.457
297.59064
297.71533
297.85688
298.03158
298.14853
298.21454
298.24651
298.25433
298.10015
298.04786
298.07088
281.7374
279.73442
276.35646
269.77283
262.83657
260.65105
262.51342
261.74023
262.98558
262.77504
263.64023
263.86106
264.61107
265.18819
266.01603
266.93262
268.01791
269.32098
270.82528
272.6131
274.66199
277.01201
279.60476
282.35855
285.1077
287.68371
289.94598
291.82252
293.30577
294.43422
295.2695
295.87948
296.33086
296.66878
296.90004
297.06724
297.22183
297.36673
297.49975
297.6235
297.74341
297.88643
298.05556
298.16266
298.22199
298.25206
298.22864
298.08006
298.0331
298.05948
281.97441
279.89045
276.33773
269.17637
262.95374
260.97837
262.85293
262.09225
263.33691
263.14964
264.01621
264.2665
265.0253
265.6372
266.48721
267.44522
268.57012
269.92542
271.48793
273.34221
275.46386
277.88556
280.5367
283.31678
286.04887
288.56396
290.73275
292.49884
293.86916
294.89197
295.63402
296.16593
296.55497
296.84282
297.03066
297.16329
297.29335
297.42128
297.54143
297.65571
297.77164
297.91704
298.07717
298.17509
298.2275
298.25448
298.19829
298.06042
298.01956
298.04845
282.22511
280.05997
276.32237
268.57475
263.13885
261.32187
263.20551
262.45923
263.70243
263.54015
264.40816
264.68991
265.45853
266.10686
266.98096
267.98206
269.14913
270.5588
272.18259
274.10615
276.30283
278.79598
281.50062
284.29745
287.00036
289.44307
291.50977
293.16052
294.41643
295.33429
295.98475
296.44104
296.7708
297.01045
297.15617
297.25531
297.3622
297.47406
297.58189
297.68713
297.79981
297.9479
298.09725
298.18594
298.23164
298.25727
298.16793
298.04113
298.0067
298.03791
282.48448
280.23506
276.29758
267.97697
263.37682
261.68012
263.57154
262.84129
264.08225
263.94792
264.81667
265.13194
265.91124
266.59759
267.49767
268.54339
269.75541
271.22191
272.91041
274.90622
277.18015
279.7435
282.49546
285.298
287.95889
290.31761
292.27402
293.8053
294.94616
295.76024
296.32113
296.70471
296.97843
297.17087
297.27637
297.34283
297.42823
297.52493
297.62101
297.7177
297.82776
297.97885
298.11623
298.19546
298.23506
298.2601
298.13776
298.02285
297.99481
298.0288
282.75705
280.42548
276.26615
267.41233
263.66405
262.05413
263.95146
263.23836
264.47694
264.37281
265.24264
265.59274
266.38378
267.10956
268.03769
269.1297
270.38965
271.91567
273.67242
275.74335
278.09588
280.72677
283.51786
286.31374
288.91915
291.18262
293.02142
294.43037
295.45654
296.16848
296.6425
296.957
297.17757
297.32303
297.39102
297.4255
297.49126
297.57377
297.6587
297.74746
297.85551
298.00943
298.13458
298.20458
298.23824
298.26363
298.10885
298.00617
297.98432
298.0207
283.03493
280.62498
276.21393
266.90579
263.99981
262.44081
264.34373
263.65033
264.88602
264.81519
265.68591
266.0726
266.87629
267.64302
268.60139
269.74152
271.05276
272.64144
274.47019
276.61914
279.05096
281.74532
284.56576
287.34135
289.87746
292.03478
293.74963
295.03469
295.94704
296.55837
296.94883
297.19838
297.36733
297.46655
297.49985
297.5035
297.55105
297.62055
297.69496
297.77657
297.88354
298.03887
298.15215
298.21386
298.24111
298.26008
298.08345
297.99149
297.97522
298.01347
283.30868
280.83232
276.13411
266.46936
264.34439
262.84294
264.75097
264.07918
265.31156
265.27415
266.14623
266.5716
267.38913
268.19821
269.18937
270.37979
271.74604
273.40068
275.30512
277.53442
280.04492
282.79673
285.63477
288.37537
290.82832
292.86947
294.45587
295.61713
296.41656
296.92868
297.23954
297.42827
297.54584
297.60201
297.60209
297.57767
297.6073
297.66524
297.72977
297.80527
297.91272
298.06613
298.16782
298.22175
298.24451
298.24083
298.06233
297.97863
297.9674
298.00717
283.5827
281.05412
276.0278
266.09588
264.7379
263.25996
265.17211
264.52412
265.75241
265.75095
266.62421
267.08978
267.9228
268.77559
269.8025
271.0457
272.47109
274.19528
276.17907
278.49068
281.07808
283.87953
286.72178
289.41186
291.76794
293.68411
295.13964
296.17796
296.86445
297.27889
297.51405
297.64482
297.71262
297.73047
297.69687
297.64916
297.6599
297.70785
297.76316
297.83368
297.94364
298.09043
298.18135
298.22785
298.2469
298.21087
298.04229
297.96673
297.96084
298.00174
283.84454
281.27964
275.88481
265.79021
265.14712
263.69098
265.60726
264.98582
266.20966
266.24589
267.11972
267.62749
268.47768
269.37603
270.44206
271.74093
273.22979
275.027
277.09344
279.4883
282.14897
284.98992
287.82133
290.44478
292.69109
294.47574
295.80025
296.71566
297.28826
297.60839
297.7713
297.84627
297.86828
297.85238
297.7841
297.71789
297.70926
297.7483
297.79511
297.86178
297.97559
298.11229
298.19275
298.23219
298.2491
298.17882
298.0225
297.95602
297.95508
297.99669
284.09463
281.51105
275.7073
265.55948
265.57972
264.1379
266.05747
265.46466
266.68315
266.75837
267.63391
268.18511
269.0548
270.00076
271.10959
272.46747
274.02419
275.89801
278.04996
280.52832
283.25676
286.12526
288.92927
291.46989
293.59477
295.24395
296.43783
297.22712
297.68671
297.91656
298.01119
298.03379
298.01647
297.96572
297.8651
297.78174
297.75642
297.78643
297.82562
297.88944
298.00763
298.13257
298.20287
298.23547
298.25151
298.14435
298.00318
297.94621
297.95008
297.99219
284.32764
281.7442
275.50006
265.40759
266.03036
264.59982
266.52153
265.95977
267.17207
267.28801
268.16769
268.76346
269.65547
270.65122
271.80723
273.2275
274.8564
276.81007
279.04977
281.61016
284.39866
287.28027
290.03924
292.48124
294.47545
295.98786
297.04893
297.70875
298.05764
298.20332
298.23513
298.21023
298.15525
298.07114
297.94032
297.8395
297.80221
297.82204
297.85472
297.9166
298.039
298.15149
298.21251
298.23885
298.25496
298.11053
297.98504
297.93748
297.94566
297.98893
284.54038
281.97936
275.27067
265.34516
266.49935
265.07661
266.99902
266.47132
267.67713
267.8364
268.72138
269.3637
270.28131
271.32949
272.53721
274.0233
275.72855
277.76522
280.09426
282.73395
285.57245
288.45099
291.14644
293.47521
295.33222
296.70725
297.62895
298.15826
298.40102
298.47123
298.44611
298.37452
298.28505
298.16858
298.00943
297.89245
297.84615
297.85511
297.88262
297.94358
298.06897
298.16864
298.2213
298.24276
298.2524
298.07932
297.9689
297.92995
297.94204
297.98632
284.72786
282.20627
275.02512
265.37128
266.98255
265.56819
267.49021
267.0002
268.1994
268.40441
269.29656
269.98803
270.93439
272.03786
273.30192
274.85716
276.64266
278.76505
281.18388
283.89778
286.77355
289.63077
292.24423
294.44729
296.16371
297.39732
298.17321
298.57339
298.72026
298.72376
298.64124
298.52752
298.40577
298.25819
298.07253
297.94102
297.88783
297.886
297.90963
297.97121
298.09664
298.1835
298.22775
298.24492
298.23623
298.05274
297.95525
297.92372
297.93882
297.98404
284.89788
282.41876
274.77137
265.48361
267.47999
266.07679
267.99743
267.54848
268.74057
268.99357
269.89497
270.6385
271.61719
272.77861
274.1037
275.73128
277.60079
279.81139
282.31939
285.10028
287.99816
290.81447
293.32819
295.3958
296.96968
298.05236
298.6789
298.956
299.02191
298.9575
298.82219
298.66947
298.5178
298.34021
298.13018
297.98566
297.92619
297.91547
297.93603
298.00034
298.12095
298.19591
298.2324
298.24629
298.20356
298.03062
297.94398
297.9192
297.93666
297.98187
285.04346
282.61002
274.53585
265.68226
267.99329
266.60534
268.52072
268.11698
269.30216
269.60587
270.51922
271.31669
272.33226
273.55413
274.94479
276.64788
278.60483
280.90546
283.50004
286.33774
289.23986
291.99476
294.39278
296.31838
297.74493
298.66637
299.14425
299.31333
299.30305
299.17348
298.9889
298.80084
298.62134
298.41494
298.18284
298.02667
297.96051
297.94406
297.96189
298.03058
298.14198
298.20636
298.23609
298.24829
298.17169
298.00957
297.93406
297.91552
297.93512
297.9797
285.17056
282.77857
274.32983
265.96318
268.52271
267.15301
269.06165
268.70704
269.88616
270.24399
271.17183
272.0249
273.08178
274.36674
275.82735
277.60914
279.65687
282.04873
284.72539
287.60699
290.49343
293.16653
295.43525
297.21472
298.48258
299.23627
299.57244
299.65026
299.56252
299.37208
299.14234
298.92214
298.71679
298.48278
298.23072
298.06402
297.99165
297.97138
297.98699
298.06012
298.16095
298.21601
298.23976
298.25114
298.13664
297.99041
297.9255
297.91278
297.93409
297.9775
285.27438
282.91319
274.16609
266.32085
269.06905
267.72081
269.6233
269.32183
270.49557
270.90986
271.85475
272.76576
273.86797
275.21866
276.75353
278.61738
280.75869
283.24172
285.99279
288.90218
291.75107
294.32318
296.45199
298.08038
299.1747
299.75975
299.97194
299.96311
299.80104
299.55403
299.283
299.03381
298.80444
298.544
298.27385
298.09769
298.02014
297.99743
298.01109
298.08832
298.1779
298.22468
298.24337
298.25179
298.10253
297.97333
297.91871
297.91122
297.9333
297.97618
285.38893
283.01708
274.04572
266.74398
269.63622
268.3142
270.20789
269.96417
271.13216
271.60524
272.56974
273.54123
274.69309
276.11195
277.72567
279.67494
281.91254
284.48469
287.30012
290.21802
293.00711
295.46062
297.44211
298.90756
299.81808
300.24009
300.34781
300.25094
300.01947
299.72026
299.41173
299.13646
298.88476
298.59887
298.31236
298.12801
298.04629
298.0222
298.03421
298.11482
298.19232
298.23093
298.24504
298.24333
298.0712
297.9585
297.91262
297.91042
297.93372
297.97565
285.50424
283.08025
273.99807
267.22397
270.22692
268.93537
270.81766
270.63524
271.79719
272.33155
273.31898
274.35289
275.55926
277.04918
278.74628
280.78448
283.11974
285.77651
288.64212
291.54676
294.25362
296.57388
298.40188
299.68658
300.40915
300.6863
300.69634
300.51452
300.21856
299.87148
299.52914
299.23053
298.95806
298.64752
298.34641
298.15531
298.06985
298.04588
298.05692
298.13898
298.20416
298.23529
298.24647
298.22047
298.04491
297.94594
297.90754
297.91019
297.93462
297.97551
285.62077
283.10433
274.03298
267.71635
270.84285
269.58414
271.45142
271.33487
272.49193
273.0907
274.10477
275.20285
276.46889
278.03307
279.81804
281.94878
284.38166
287.11584
290.01408
292.88197
295.4855
297.66053
299.32435
300.41254
300.94974
301.10564
301.01597
300.75497
300.39951
300.00872
299.63605
299.31665
299.02477
298.69012
298.37624
298.18013
298.09287
298.06867
298.08065
298.16015
298.21435
298.23854
298.24813
298.18708
298.02281
297.93528
297.90342
297.91006
297.93589
297.97568
285.74622
283.08737
274.14538
268.26374
271.47499
270.26086
272.11022
272.06491
273.21897
273.88511
274.92914
276.09373
277.42466
279.0667
280.94422
283.17028
285.69842
288.49868
291.40837
294.21491
296.69615
298.71664
300.19821
301.08103
301.449
301.49429
301.30776
300.97322
300.56315
300.13273
299.73309
299.39518
299.0851
298.72681
298.40217
298.2025
298.11413
298.09072
298.10494
298.17817
298.22383
298.24187
298.25031
298.15404
298.00228
297.9264
297.90056
297.91079
297.93753
297.97607
285.86863
283.03436
274.33658
268.92911
272.12965
270.96936
272.79915
272.82911
273.98158
274.71695
275.79429
277.02786
278.42981
280.15362
282.12812
284.4513
287.06966
289.92096
292.81831
295.53926
297.88176
299.73779
301.01533
301.69159
301.91656
301.85058
301.57302
301.17073
300.71075
300.24455
299.821
299.46659
299.13925
298.7578
298.42458
298.22299
298.13452
298.11192
298.12814
298.19377
298.2321
298.24569
298.25054
298.11948
297.98359
297.91922
297.89882
297.9119
297.93932
297.97655
286.00791
282.95674
274.6046
269.57418
272.81393
271.71209
273.51935
273.62917
274.78147
275.58864
276.70243
278.00859
279.48821
281.298
283.37298
285.79306
288.49262
291.37549
294.23441
296.84702
299.03703
300.71139
301.77061
302.25206
302.35035
302.1748
301.81286
301.34851
300.84321
300.34492
299.90039
299.53123
299.18735
298.78324
298.44386
298.24186
298.15402
298.13224
298.14978
298.20667
298.23816
298.24832
298.24499
298.08674
297.96727
297.9132
297.89772
297.9132
297.94116
297.97704
286.164
282.86395
274.95778
270.26434
273.52279
272.48971
274.27206
274.46574
275.62044
276.50107
277.65917
279.04057
280.60385
282.50411
284.68197
287.19621
289.96404
292.85548
295.64919
298.13282
300.15872
301.62734
302.46138
302.77313
302.74858
302.4686
302.029
301.50807
300.96176
300.43483
299.97201
299.58982
299.23011
298.80325
298.46044
298.25938
298.17273
298.15158
298.16979
298.21731
298.24233
298.24968
298.22778
298.05864
297.95363
297.90826
297.89741
297.91465
297.94308
297.97757
286.34647
282.74778
275.37468
270.99334
274.25995
273.30311
275.05952
275.34085
276.50122
277.45803
278.66881
280.12875
281.78153
283.77609
286.05735
288.6592
291.47752
294.35102
297.05313
299.38926
301.23589
302.47728
303.09143
303.25779
303.10986
302.73326
302.22267
301.65048
301.0673
300.51503
300.03652
299.64313
299.26884
298.81792
298.47472
298.27571
298.19065
298.16979
298.18832
298.22661
298.24556
298.2514
298.1969
298.03688
297.94289
297.90444
297.89727
297.91652
297.94516
297.97823
286.57283
282.62813
275.86215
271.76701
275.02747
274.15655
275.88395
276.25772
277.42824
278.46516
279.736
281.27823
283.02586
285.11771
287.50055
290.17975
293.02635
295.85389
298.43952
300.61254
302.25655
303.25752
303.67238
303.7036
303.43651
302.97084
302.39569
301.77724
301.161
300.58643
300.09465
299.69184
299.30471
298.8278
298.4871
298.29099
298.20774
298.18672
298.20501
298.23545
298.24903
298.25288
298.16772
298.01702
297.93461
297.90246
297.89866
297.91884
297.94749
297.97907
286.84593
282.50071
276.38706
272.58229
275.82331
275.05159
276.74977
277.22083
278.40731
279.52897
280.86579
282.49441
284.34148
286.53209
289.01135
291.75219
294.60074
297.353
299.79967
301.7943
303.2074
303.96684
304.21325
304.10724
303.72981
303.18279
302.54935
301.88939
301.24374
300.64974
300.14687
299.73568
299.33588
298.83437
298.49796
298.30531
298.22402
298.20235
298.21905
298.24298
298.25437
298.25142
298.13556
297.99944
297.92809
297.9013
297.90035
297.92135
297.95
297.9801
287.18027
282.37283
277.05503
273.44915
276.65609
275.99507
277.66316
278.23564
279.44361
280.65573
282.06479
283.78231
285.73248
288.02135
290.58786
293.37011
296.19122
298.84014
301.12718
302.92139
304.08431
304.61654
304.71111
304.47152
303.99216
303.37125
302.6854
301.98834
301.31661
300.70582
300.19371
299.77412
299.3567
298.83958
298.50758
298.31876
298.23961
298.21703
298.23066
298.24807
298.25758
298.246
298.10396
297.98385
297.9227
297.90038
297.90241
297.92399
297.95265
297.98127
287.60911
282.26155
277.75598
274.37011
277.53311
276.9932
278.63036
279.30786
280.54553
281.84858
283.33834
285.14767
287.20263
289.58623
292.22545
295.02353
297.78562
300.30452
302.41357
303.97845
304.88185
305.21797
305.16279
304.79758
304.22525
303.53778
302.80512
302.0751
301.38044
300.75529
300.23545
299.80739
299.37114
298.84333
298.51624
298.33139
298.25455
298.23106
298.24014
298.2513
298.25973
298.23234
298.07582
297.97043
297.91814
297.89967
297.90519
297.92673
297.95538
297.98259
288.14618
282.14394
278.47608
275.34577
278.45468
278.05039
279.65725
280.44472
281.72013
283.11324
284.69175
286.59543
288.75482
291.22545
293.91797
296.70232
299.37384
301.73785
303.64846
304.95681
305.60824
305.77273
305.56936
305.08839
304.43166
303.6845
302.91019
302.15099
301.43624
300.79893
300.27273
299.83631
299.3815
298.84601
298.52411
298.34318
298.2685
298.24404
298.2485
298.25423
298.26193
298.20688
298.05363
297.95921
297.91495
297.90003
297.9078
297.92966
297.95819
297.98403
288.77607
282.02937
279.3332
276.38691
279.42949
279.17236
280.75201
281.65169
282.97291
284.45838
286.13102
288.13059
290.39036
292.93529
295.65554
298.3934
300.94357
303.12984
304.81374
305.8495
306.27508
306.27715
305.93246
305.34583
304.61319
303.81291
303.00179
302.21692
301.48473
300.83734
300.30618
299.8625
299.3892
298.84719
298.53134
298.35405
298.28104
298.25549
298.25594
298.25908
298.2614
298.18075
298.03376
297.94977
297.91262
297.90157
297.9106
297.93269
297.96102
297.98557
289.52162
281.95074
280.24324
277.50281
280.4642
280.36735
281.922
282.9372
284.31099
285.89057
287.66175
289.75596
292.10836
294.7095
297.42756
300.08473
302.485
304.47213
305.89599
306.6586
306.89147
306.73006
306.25534
305.57288
304.77235
303.92501
303.08147
302.27408
301.52685
300.87119
300.33628
299.88676
299.39357
298.84749
298.538
298.36405
298.29229
298.26585
298.26195
298.26463
298.25745
298.15116
298.01639
297.94242
297.91138
297.90316
297.91332
297.93555
297.96394
297.98729
290.38771
281.90031
281.22845
278.69809
281.56658
281.64238
283.17676
284.30966
285.74091
287.41614
289.28831
291.47372
293.90563
296.53846
299.21978
301.76196
303.9848
305.74449
306.88688
307.39596
307.45247
307.13368
306.54014
305.77167
304.91092
304.0222
303.15031
302.32331
301.56327
300.901
300.36288
299.9064
299.39479
298.84722
298.54426
298.37337
298.30235
298.27496
298.26618
298.26725
298.25117
298.12106
298.00122
297.93648
297.91067
297.90491
297.91581
297.93784
297.96604
297.9894
291.37295
281.89758
282.28508
279.98204
282.74752
283.00411
284.52491
285.77257
287.27386
289.04121
291.01368
293.28296
295.7758
298.41051
301.01814
303.41262
305.433
306.93123
307.78343
308.07704
307.95507
307.49149
306.79041
305.94521
305.0313
304.10633
303.2097
302.36571
301.59481
300.9273
300.38606
299.92028
299.39383
298.84671
298.5503
298.38242
298.31178
298.28259
298.27007
298.26924
298.239
298.09346
297.98828
297.93166
297.91019
297.90659
297.91837
297.94007
297.96771
297.99125
292.47246
281.97902
283.42178
281.36603
284.01803
284.46014
285.97349
287.33359
288.91455
290.77058
292.83914
295.18127
297.70946
300.31025
302.80587
305.02087
306.81074
308.01989
308.59647
308.69609
308.402
307.80608
307.00865
306.09561
305.13516
304.17868
303.26063
302.40202
301.62206
300.95038
300.40607
299.93086
299.391
298.84621
298.55621
298.39097
298.32033
298.2897
298.27365
298.27044
298.21745
298.07126
297.97746
297.92798
297.9101
297.9084
297.92116
297.94241
297.96925
297.99257
293.6644
282.16762
284.64238
282.85911
285.38845
286.01384
287.5304
288.99999
290.66627
292.60764
294.7653
297.16186
299.69377
302.22108
304.5678
306.57411
308.09927
309.00501
309.3431
309.25089
308.79693
308.08156
307.19842
306.2257
305.22468
304.2409
303.30435
302.4332
301.64571
300.97068
300.42335
299.94024
299.38639
298.84591
298.56212
298.39909
298.32788
298.29608
298.27736
298.26736
298.19393
298.05185
297.96846
297.92547
297.91052
297.9109
297.924
297.94475
297.97072
297.99324
294.9206
282.51868
285.94425
284.4667
286.86223
287.66928
289.19898
290.77846
292.53284
294.55682
296.79033
299.21523
301.71139
304.12308
306.28502
308.05386
309.28159
309.89462
310.02091
309.74232
309.14296
308.32084
307.36219
306.33743
305.30135
304.29411
303.34171
302.45992
301.66629
300.98867
300.43857
299.9486
299.38046
298.84644
298.5681
298.407
298.33481
298.30104
298.27881
298.26288
298.16687
298.0349
297.96125
297.92435
297.91159
297.91354
297.92681
297.94706
297.97225
297.99343
296.18695
283.13752
287.33301
286.18518
288.44796
289.42975
290.99369
292.67197
294.52178
296.6221
298.90768
301.32637
303.74246
305.99759
307.94143
309.43825
310.35123
310.70662
310.62724
310.17513
309.44481
308.5281
307.50332
306.43345
305.36717
304.33981
303.37383
302.48303
301.68443
301.00502
300.45278
299.95544
299.37416
298.84786
298.57431
298.41457
298.34076
298.30498
298.27948
298.25669
298.13855
298.02014
297.95531
297.92375
297.91317
297.91639
297.92929
297.94902
297.97329
297.99365
297.33051
284.19069
288.80519
288.01129
290.15884
291.31289
292.92193
294.7
296.642
298.8006
301.10529
303.474
305.76343
307.82226
309.51723