/*--------------------------------*- C++ -*----------------------------------*\
  =========                 |
  \\      /  F ield         | OpenFOAM: The Open Source CFD Toolbox
   \\    /   O peration     | Website:  https://openfoam.org
    \\  /    A nd           | Version:  8
     \\/     M anipulation  |
\*---------------------------------------------------------------------------*/
FoamFile
{
    version     2.0;
    format      ascii;
    class       volVectorField;
    location    "0.250004";
    object      U;
}
// * * * * * * * * * * * * * * * * * * * * * * * * * * * * * * * * * * * * * //

dimensions      [0 1 -1 0 0 0 0];

internalField   nonuniform List<vector> 
20000
(
(229.20779 0 8.6098528)
(271.51574 0 10.39472)
(299.37044 2.6207389e-21 11.206981)
(323.11904 5.6118613e-19 11.875747)
(344.2726 -1.2360911e-16 12.344673)
(362.38197 1.04634e-16 12.882299)
(366.71612 8.7899644e-17 12.367654)
(369.28119 -7.3898185e-17 13.462864)
(367.29751 9.9244099e-19 12.136843)
(368.43765 4.9766896e-17 13.775687)
(367.24924 -4.4132883e-17 12.09023)
(367.62473 -3.3400339e-17 13.861273)
(366.70751 2.9514792e-17 12.24872)
(366.53024 -3.066208e-18 13.795451)
(365.6283 -2.231743e-18 12.50658)
(364.94724 4.2533869e-18 13.633151)
(363.79136 0 12.698228)
(362.50529 -2.2330628e-18 13.336197)
(360.7831 -9.8372666e-18 12.630619)
(358.65807 1.0323852e-18 12.772153)
(356.00527 -1.7164514e-18 12.095677)
(352.69971 -1.4259387e-18 11.729512)
(348.69271 -2.3671181e-18 10.816434)
(343.83663 1.5836602e-17 9.8824272)
(338.09874 -1.2797679e-17 8.5847124)
(331.51403 1.9062187e-17 7.14171)
(324.24775 1.7940834e-17 5.5582053)
(316.4868 3.2582194e-17 4.115988)
(308.54303 -2.390275e-17 2.8991153)
(300.80332 2.3538184e-17 2.0055566)
(293.59422 -3.0866253e-17 1.4417381)
(287.14136 2.3944784e-17 1.1733)
(281.58023 8.0976858e-17 1.10478)
(276.92976 0 1.1455429)
(273.14903 2.2943766e-17 1.2145297)
(270.13436 -1.7356144e-17 1.2506153)
(267.7785 -2.6514275e-17 1.228717)
(265.96344 2.1070679e-17 1.1441002)
(264.58785 0 1.0003284)
(263.54803 -8.8438072e-17 0.80511985)
(262.75918 1.6476041e-16 0.57426137)
(262.17383 -9.6643125e-17 0.32334906)
(261.72919 -1.6094066e-16 0.060822071)
(261.37261 -4.1069856e-19 -0.21185244)
(261.0476 -7.802247e-17 -0.46312083)
(260.84051 2.253398e-19 -0.64322629)
(260.59582 0 -0.72216736)
(260.52904 0 -0.6058419)
(260.28472 -5.0445742e-17 -0.43761157)
(260.94431 0 -0.15029416)
(234.67835 3.0263262e-16 7.8867004)
(277.02062 0 9.5413936)
(304.74021 6.7294824e-19 10.262821)
(328.25462 -5.7777161e-19 10.864822)
(349.04211 -4.9530894e-19 11.232598)
(366.30258 -1.0444331e-16 11.744124)
(369.50432 9.026285e-17 11.145517)
(371.98671 -7.4594517e-17 12.277987)
(369.97636 -3.0067545e-18 10.840921)
(371.09678 2.4212244e-17 12.572138)
(369.86261 2.2940933e-17 10.74608)
(370.21566 -2.256774e-18 12.605843)
(369.24799 0 10.854902)
(369.03011 3.1317976e-18 12.458974)
(368.0618 2.6102985e-18 11.040163)
(367.30199 -4.3444257e-18 12.168336)
(366.04704 1.4115376e-20 11.11349)
(364.64094 -1.1661105e-20 11.698291)
(362.77941 5.0089867e-18 10.883181)
(360.49073 2.0722082e-17 10.946742)
(357.63982 0 10.166912)
(354.11058 0 9.7111514)
(349.85074 0 8.7310632)
(344.74124 -1.6078537e-17 7.7582049)
(338.77703 2.6331704e-17 6.4622972)
(331.96198 -1.0719383e-17 5.0777175)
(324.5261 -1.0765547e-16 3.6076396)
(316.64306 -1.4499421e-17 2.3148111)
(308.61801 -1.1770448e-17 1.2902893)
(300.79424 7.7412743e-17 0.62116505)
(293.52967 0 0.28944894)
(287.05712 -7.3515532e-17 0.24212785)
(281.49732 -9.6167436e-17 0.37169445)
(276.86103 0 0.58176484)
(273.10114 -1.6146538e-16 0.79041694)
(270.10843 -1.7513361e-17 0.93748599)
(267.76729 2.672395e-17 1.0015441)
(265.96161 -1.8020723e-16 0.98216131)
(264.59071 -2.3927315e-16 0.88698463)
(263.55058 -8.8857474e-17 0.72652694)
(262.7583 -1.3139961e-16 0.52087303)
(262.16897 -7.2667192e-17 0.28797459)
(261.71938 1.2485676e-16 0.037030971)
(261.35241 0 -0.22978815)
(261.02103 7.750006e-17 -0.47617425)
(260.80089 0 -0.65376079)
(260.58082 1.0709825e-17 -0.73198586)
(260.44143 6.5253883e-21 -0.6122945)
(260.30965 1.4211166e-16 -0.42080266)
(260.98179 7.8023696e-17 -0.12059254)
(238.53447 -3.0771169e-16 7.0683459)
(280.98486 7.8971377e-19 8.6047839)
(308.67234 1.7645797e-16 9.2366338)
(332.08022 -1.1632758e-18 9.7841392)
(352.6534 -6.1966165e-17 10.044412)
(369.20619 5.1985374e-17 10.517163)
(371.40817 -4.5379957e-17 9.8226429)
(373.85255 7.7712842e-17 11.009327)
(371.79763 -2.9545882e-17 9.433303)
(372.9187 3.2837598e-18 11.267514)
(371.63425 -2.1881267e-17 9.2973346)
(371.96981 1.813987e-17 11.254098)
(370.95134 2.2743832e-17 9.3719082)
(370.68756 -1.2587208e-17 11.014574)
(369.6477 5.2718399e-18 9.4651802)
(368.79995 -1.3107178e-17 10.576194)
(367.44106 0 9.4149705)
(365.90687 0 9.9416325)
(363.91884 2.0232981e-17 9.0314699)
(361.48933 -1.6896463e-17 9.010683)
(358.49884 -2.8062293e-17 8.1470913)
(354.83901 -5.8494656e-17 7.6238923)
(350.45407 9.6070507e-18 6.5931479)
(345.22772 1.632742e-17 5.5848506)
(339.14378 -1.3179676e-17 4.2912114)
(332.20338 0 2.9641432)
(324.63785 7.2850601e-17 1.6111017)
(316.61452 0 0.47958719)
(308.46929 0 -0.34400356)
(300.56117 -5.8576717e-17 -0.78418189)
(293.25893 1.1020932e-16 -0.87385817)
(286.79275 2.9855146e-16 -0.69202695)
(281.26566 -1.9639708e-17 -0.3601792)
(276.67434 1.5018965e-17 0.020532551)
(272.96007 1.8634056e-16 0.36850888)
(270.00902 3.5638903e-17 0.62539666)
(267.69979 -5.3673938e-17 0.77400734)
(265.91728 -1.4123845e-16 0.81863101)
(264.56097 -4.4348289e-20 0.77105038)
(263.52794 2.0076156e-16 0.64477279)
(262.7392 2.8017573e-16 0.46412614)
(262.15147 1.9418249e-16 0.24921323)
(261.70087 3.3310737e-20 0.0096386128)
(261.32619 -1.3103368e-17 -0.25109972)
(260.99009 3.2843553e-16 -0.49167604)
(260.76635 -1.4265301e-17 -0.66495931)
(260.55188 3.3983714e-16 -0.74108317)
(260.41961 -7.9773676e-18 -0.61678616)
(260.31932 -9.7237473e-17 -0.40062652)
(260.99888 -7.3266227e-17 -0.092352828)
(241.49461 -1.5397694e-16 6.1723187)
(284.07135 -8.9203899e-19 7.5712017)
(311.75652 1.7591926e-16 8.0994296)
(335.09042 -1.5060956e-16 8.5787758)
(355.49594 -2.0750911e-18 8.7205526)
(371.41821 -4.6602088e-20 9.1580362)
(372.66152 -4.9543214e-20 8.371587)
(375.09491 7.8696012e-17 9.6478389)
(372.99324 -3.1936324e-17 7.9356298)
(374.12077 6.6175675e-18 9.8839803)
(372.78604 5.5296854e-18 7.7656124)
(373.10167 0 9.8212838)
(372.01757 -7.7014524e-18 7.7957929)
(371.69095 0 9.4704749)
(370.57004 -1.3373759e-18 7.7854957)
(369.63925 1.1122495e-17 8.8793721)
(368.19542 2.796325e-18 7.6123476)
(366.56575 -2.7744284e-17 8.0952795)
(364.49052 -2.0588128e-17 7.1154422)
(361.96907 0 7.0356197)
(358.90648 2.853969e-17 6.107653)
(355.17138 4.7486572e-17 5.5219299)
(350.7041 0 4.4475823)
(345.40093 1.6584519e-17 3.4119018)
(339.23663 -1.3382255e-17 2.122669)
(332.19855 0 0.85357514)
(324.48519 -1.6684936e-16 -0.38479135)
(316.31745 3.0248445e-17 -1.3608311)
(308.0602 -1.21145e-17 -1.9780922)
(300.11335 0 -2.1794068)
(292.82403 1.2766863e-16 -2.0237889)
(286.40602 -2.0132409e-16 -1.6125703)
(280.94438 0 -1.0799844)
(276.42252 -2.4504337e-16 -0.53092223)
(272.77283 -3.528608e-16 -0.045959421)
(269.87733 -1.7816774e-17 0.3185742)
(267.61008 0 0.54991557)
(265.8578 3.0416555e-16 0.65724566)
(264.52117 2.5681459e-16 0.65636424)
(263.49876 -3.5831717e-16 0.56379425)
(262.71588 -2.6432313e-16 0.40794593)
(262.13142 -2.4323707e-17 0.21090423)
(261.68055 1.7824312e-17 -0.01755779)
(261.29832 0 -0.27229616)
(260.95753 -3.4656023e-16 -0.50706024)
(260.72535 4.6854845e-16 -0.67573832)
(260.516 -6.6348568e-16 -0.74937733)
(260.40248 -7.8831486e-18 -0.62041807)
(260.33336 5.9762748e-18 -0.3797271)
(261.01361 0 -0.06419908)
(243.81696 -1.9901653e-20 5.2374077)
(286.50091 2.2387488e-16 6.4874031)
(314.21653 -9.0873267e-17 6.9150219)
(337.50578 7.4777505e-17 7.3191705)
(357.77376 -6.5873343e-17 7.3321778)
(373.05619 3.4402916e-18 7.749242)
(373.44095 0 6.8619379)
(375.88403 -4.8444863e-18 8.2417194)
(373.72639 0 6.3899719)
(374.85911 -2.0192134e-17 8.4523458)
(373.46416 -5.6552083e-18 6.1596018)
(373.75112 9.3295861e-18 8.2813989)
(372.60481 1.5594368e-17 6.0863268)
(372.22562 -1.1357852e-17 7.8024624)
(371.04405 -1.3511151e-18 6.0153651)
(370.05581 0 7.1199613)
(368.56182 0 5.7775613)
(366.88265 5.6465057e-17 6.227205)
(364.76211 -5.1953274e-18 5.1868436)
(362.18383 8.7591752e-18 5.0535239)
(359.07348 5.077232e-17 4.0712684)
(355.28331 -1.2167498e-17 3.4250242)
(350.75386 9.9089837e-18 2.3095175)
(345.35237 1.6850483e-17 1.2490962)
(339.06626 -1.3588665e-17 -0.037472074)
(331.89108 0 -1.2636292)
(324.00853 1.6914418e-16 -2.393039)
(315.71174 1.2378614e-16 -3.1984159)
(307.39509 -3.7654341e-17 -3.5976381)
(299.4544 1.9860082e-17 -3.5545144)
(292.22047 -2.5767095e-16 -3.1517108)
(285.88807 0 -2.5121195)
(280.52319 -2.0088548e-17 -1.7816984)
(276.09562 2.3152448e-16 -1.0679558)
(272.52979 -6.1740577e-19 -0.44961003)
(269.7044 -3.0723105e-16 0.019357297)
(267.49039 5.4442347e-17 0.33077023)
(265.7767 -2.0339668e-17 0.49880658)
(264.46582 0 0.54317802)
(263.45851 -7.7215577e-20 0.48347415)
(262.68502 5.2999794e-16 0.35197779)
(262.10653 2.4350815e-17 0.17250848)
(261.65665 -5.8868649e-16 -0.045226059)
(261.26761 0 -0.29403628)
(260.92316 1.9195909e-17 -0.52305344)
(260.67749 -9.1748772e-16 -0.68639243)
(260.47844 -3.7371592e-20 -0.75648291)
(260.39563 -4.8280344e-16 -0.62263548)
(260.34751 -1.1755564e-17 -0.35818505)
(261.02388 -2.9112671e-16 -0.036346751)
(245.62562 -2.5015076e-18 4.2591695)
(288.46041 0 5.3103662)
(316.22763 1.4468898e-18 5.6272373)
(339.49235 2.4562034e-18 5.960672)
(359.63508 3.3487394e-17 5.8381764)
(374.25521 -2.7939682e-17 6.2667495)
(373.86493 -2.3689554e-17 5.2742198)
(376.33585 1.9621776e-17 6.7487397)
(374.11408 -8.2453885e-18 4.7337984)
(375.25644 6.7955829e-18 6.9117028)
(373.79693 1.1399652e-17 4.4481689)
(374.04994 4.7379193e-18 6.6569462)
(372.88188 1.9602172e-18 4.3250947)
(372.48411 1.2389386e-18 6.1040368)
(371.27339 3.4314443e-19 4.2286715)
(370.25422 0 5.3447731)
(368.7275 -2.2904116e-17 3.9391714)
(367.01461 -5.0905777e-17 4.3600714)
(364.86015 -4.7746837e-17 3.2630369)
(362.23425 -8.8997943e-18 3.0779225)
(359.05974 -5.1565343e-17 2.0476955)
(355.17717 0 1.3427221)
(350.54143 -7.1266116e-17 0.17719971)
(344.99851 -8.3420457e-18 -0.92088208)
(338.55338 0 -2.2027142)
(331.2206 -1.7404915e-16 -3.3750316)
(323.20758 -2.8744932e-17 -4.3860431)
(314.82627 -1.2528654e-16 -5.0132667)
(306.49256 1.2482873e-17 -5.1867664)
(298.60234 0 -4.8952274)
(291.46544 0 -4.2461815)
(285.25419 0 -3.3820685)
(280.01472 2.0309395e-17 -2.4590204)
(275.70361 4.8471267e-16 -1.5859696)
(272.23885 7.6631505e-16 -0.83907829)
(269.49659 -3.0971276e-16 -0.2698049)
(267.34562 -4.5271221e-16 0.11836062)
(265.67768 2.0453289e-17 0.34463211)
(264.39777 3.0541322e-17 0.43247429)
(263.4094 1.0823051e-15 0.4045575)
(262.64823 -1.1118601e-15 0.29680008)
(262.07789 8.522957e-16 0.13444964)
(261.62952 5.3481834e-16 -0.073030912)
(261.23401 0 -0.31599467)
(260.88659 -6.1146658e-16 -0.53970375)
(260.62422 4.6292153e-16 -0.69681599)
(260.44556 9.832403e-16 -0.76212165)
(260.39284 1.5399429e-17 -0.62339991)
(260.3658 -1.1561088e-17 -0.33636214)
(261.03435 2.8236989e-16 -0.0087918256)
(247.15121 1.8588227e-21 3.2544993)
(290.14006 -1.8093788e-18 4.1320508)
(317.97236 2.9415387e-18 4.3161451)
(341.21481 -3.9972856e-17 4.5760208)
(361.21822 6.3779826e-17 4.2938704)
(375.12712 -7.063157e-18 4.7373549)
(374.06115 -1.8024584e-17 3.622796)
(376.5551 -1.9955707e-17 5.1966575)
(374.26646 8.3379568e-18 3.0164458)
(375.45083 6.9396681e-18 5.3235757)
(373.92281 -5.7897366e-18 2.7022504)
(374.20108 -8.4376831e-18 5.0146407)
(373.00576 -1.6099326e-17 2.5633627)
(372.59821 1.5932219e-17 4.4059638)
(371.36629 -2.5157957e-17 2.4462448)
(370.32262 4.6732974e-18 3.568226)
(368.76601 2.7197913e-17 2.1073969)
(367.00258 -2.5922712e-17 2.5020016)
(364.7877 4.3122122e-17 1.3514316)
(362.08069 0 1.1045133)
(358.8044 0 0.013374841)
(354.79396 -9.9744536e-17 -0.75403639)
(350.01492 1.6566137e-16 -1.9600995)
(344.32049 1.7418572e-17 -3.085823)
(337.72132 -1.4032474e-17 -4.3559929)
(330.2438 -8.9422598e-19 -5.4685475)
(322.11862 1.9691174e-17 -6.3524237)
(313.68564 -1.5589891e-17 -6.7910964)
(305.37544 -2.3297898e-16 -6.7319284)
(297.57488 2.0443192e-17 -6.1904199)
(290.57148 0 -5.2980459)
(284.51297 0 -4.2151597)
(279.42471 0 -3.1063917)
(275.25025 -5.0429259e-16 -2.080795)
(271.90232 -3.8620618e-16 -1.2112772)
(269.25522 5.6788869e-16 -0.54665325)
(267.17644 8.9677389e-16 -0.085682812)
(265.56101 -2.0656982e-17 0.19587176)
(264.31697 -9.6472976e-16 0.32504928)
(263.35126 -7.4608561e-16 0.32759605)
(262.60549 5.8175602e-16 0.24278195)
(262.04542 -8.0377649e-16 0.096914988)
(261.59876 -5.699845e-16 -0.10087098)
(261.19718 0 -0.33804102)
(260.84716 6.2778377e-16 -0.55687273)
(260.57322 -1.3926959e-17 -0.70707391)
(260.42187 -6.5637731e-16 -0.76628729)
(260.3965 4.862418e-16 -0.62280998)
(260.39227 0 -0.31449182)
(261.04761 0 0.018343074)
(248.49317 2.5879585e-18 2.0873928)
(291.65247 6.0787065e-17 2.9393094)
(319.55806 -5.0919085e-17 2.9366596)
(342.78492 0 3.12137)
(362.62408 4.3219511e-18 2.6760474)
(375.7756 1.0803602e-17 3.1549011)
(374.1577 -1.8341186e-17 1.9189442)
(376.67643 1.0117426e-17 3.6107764)
(374.35923 0 1.2696897)
(375.5415 -5.28061e-18 3.7157865)
(374.0016 -1.4700434e-18 0.94699871)
(374.27796 0 3.3762536)
(373.02857 0 0.81728074)
(372.60327 -2.0426293e-17 2.7172861)
(371.33608 1.7049146e-17 0.67400052)
(370.24744 -2.8393085e-17 1.7963911)
(368.63905 -7.8596458e-18 0.2694005)
(366.79828 5.257621e-17 0.61992202)
(364.49688 0 -0.58435344)
(361.68124 0 -0.88849325)
(358.28801 1.5341159e-17 -2.028399)
(354.14597 1.9004452e-16 -2.8519491)
(349.22119 -9.4702342e-17 -4.0945409)
(343.36857 8.620275e-18 -5.2432108)
(336.60952 0 -6.4933633)
(328.99145 1.912115e-16 -7.53447)
(320.77415 0 -8.2790758)
(312.31981 0 -8.5195112)
(304.06735 1.8246625e-16 -8.2219595)
(296.39172 -3.1709239e-16 -7.4303106)
(289.55453 0 -6.2993062)
(283.67682 0 -5.0051472)
(278.76246 6.6067387e-16 -3.7190689)
(274.74234 0 -2.5488643)
(271.52509 0 -1.5635389)
(268.9838 -5.7248654e-16 -0.80921866)
(266.98533 -4.57809e-16 -0.27992463)
(265.42839 6.216863e-16 0.053559949)
(264.22457 1.9667754e-15 0.22164754)
(263.28486 7.7081179e-16 0.25313815)
(262.55738 -1.6621629e-17 0.1902993)
(262.00934 8.0403047e-16 0.060101541)
(261.56414 5.6919026e-16 -0.12860923)
(261.15671 -1.2961648e-17 -0.3600149)
(260.80401 -6.2501682e-16 -0.57403319)
(260.53071 1.383407e-17 -0.71700855)
(260.40346 6.5030367e-16 -0.76886696)
(260.4067 0 -0.62079445)
(260.43693 -5.5820011e-18 -0.29313902)
(261.06692 4.2247002e-18 0.045451252)
(249.76693 2.6313646e-18 0.93506073)
(293.08193 -3.3737312e-17 1.7086042)
(321.0589 4.8801874e-17 1.5202251)
(344.27191 -2.070801e-17 1.6349721)
(363.89736 8.7818412e-18 1.0281332)
(376.25637 -1.4618385e-17 1.5577786)
(374.1409 3.104356e-18 0.19702093)
(376.734 2.5679645e-18 2.0238735)
(374.35424 -1.0783698e-18 -0.47635539)
(375.56458 8.9285523e-19 2.1105779)
(373.964 -1.1964676e-17 -0.80433298)
(374.27596 1.9906924e-17 1.7379675)
(372.92218 0 -0.93953283)
(372.46048 -3.7470764e-20 1.0004576)
(371.14219 0 -1.1309182)
(369.99077 3.8444231e-17 -0.012957772)
(368.31437 0 -1.5946529)
(366.38961 1.3437211e-17 -1.2824118)
(363.99915 -1.1073049e-17 -2.5321814)
(361.07464 9.3529431e-18 -2.8927992)
(357.55926 -1.3163919e-16 -4.0779967)
(353.27584 -2.0602001e-16 -4.9541275)
(348.19471 -1.6094942e-16 -6.2261191)
(342.17612 -1.515148e-16 -7.3891273)
(335.25396 2.3674144e-16 -8.6086077)
(327.50034 -1.9568875e-16 -9.5655265)
(319.20534 0 -10.157294)
(310.7551 2.6315889e-16 -10.188571)
(302.59158 0 -9.6474632)
(295.07226 3.1941807e-16 -8.6068567)
(288.43 -5.2814537e-16 -7.2433611)
(282.75752 0 -5.7468189)
(278.03666 1.7255439e-18 -4.2930464)
(274.18615 0 -2.9871278)
(271.11158 0 -1.8935509)
(268.68542 5.9437784e-16 -1.0557701)
(266.77439 -2.797293e-17 -0.46308965)
(265.28119 2.1131139e-17 -0.081375131)
(264.12141 -1.9734349e-15 0.12294731)
(263.21078 2.3022951e-19 0.18170332)
(262.5043 0 0.13969808)
(261.96973 2.4525003e-17 0.024172659)
(261.52537 -1.7740307e-17 -0.15612974)
(261.11202 -8.0202616e-16 -0.38176756)
(260.75761 -6.0318981e-16 -0.59054139)
(260.49826 -8.9373513e-16 -0.72634594)
(260.39067 -6.4409484e-16 -0.76998596)
(260.41379 -1.4811717e-17 -0.61644491)
(260.5277 1.664577e-20 -0.27274498)
(261.09469 8.2618937e-18 0.070950474)
(250.92696 8.0247963e-18 -0.2560155)
(294.38211 7.6289367e-18 0.44728106)
(322.43614 0 0.068781561)
(345.64546 1.3183241e-18 0.11365678)
(364.99084 -1.1137878e-18 -0.65700369)
(376.55996 0 -0.063755631)
(373.99865 6.9740265e-21 -1.5610834)
(376.62979 8.8645064e-21 0.40964926)
(374.18005 -1.312935e-17 -2.2497384)
(375.36317 2.1811326e-17 0.47757297)
(373.74644 1.822987e-17 -2.5874711)
(373.97468 -4.0424573e-17 0.056901582)
(372.65467 8.4567028e-18 -2.7378069)
(372.15316 2.1081572e-17 -0.75084224)
(370.78269 0 -2.9588026)
(369.56962 -3.9156136e-17 -1.8457017)
(367.82661 -6.5305715e-17 -3.4766755)
(365.81581 -4.0794728e-17 -3.2049886)
(363.3311 -2.2659231e-17 -4.4954682)
(360.29121 1.8877329e-17 -4.9105683)
(356.6462 1.1775714e-16 -6.1348797)
(352.21367 1.0450984e-16 -7.0587282)
(346.96727 1.7381869e-16 -8.3535573)
(340.77349 3.0801286e-16 -9.5222203)
(333.68233 -2.5406268e-16 -10.698458)
(325.79634 2.1030324e-16 -11.555528)
(317.43853 1.0683276e-17 -11.979046)
(309.01652 -2.6515442e-16 -11.789963)
(300.97037 -1.3277274e-17 -11.000766)
(293.63566 -3.4759329e-16 -9.7134955)
(287.21364 1.0841709e-15 -8.1249058)
(281.7674 -1.3848414e-17 -6.4360343)
(277.25663 -6.5175194e-16 -4.8251477)
(273.58854 0 -3.3931455)
(270.66673 2.481445e-17 -2.1994337)
(268.36363 -5.9873207e-16 -1.2848817)
(266.54609 -1.3985305e-17 -0.63411651)
(265.12107 -6.6851841e-16 -0.20814781)
(264.00861 -4.3743915e-19 0.029535287)
(263.12983 -1.4565995e-15 0.11374837)
(262.44671 0 0.091284468)
(261.92661 1.5828254e-19 -0.01073207)
(261.48225 -1.7739478e-17 -0.18334148)
(261.06221 8.3775104e-16 -0.40305793)
(260.70946 1.1997075e-15 -0.6058425)
(260.47282 -1.3721043e-17 -0.73461047)
(260.38174 1.285576e-15 -0.77008672)
(260.41787 0 -0.60869005)
(260.63998 -6.9144719e-16 -0.25317846)
(261.1304 5.2026828e-16 0.093781814)
(251.95351 2.1756452e-17 -1.4772164)
(295.53298 -1.9394788e-17 -0.83268834)
(323.67427 -1.2647754e-17 -1.3967377)
(346.89645 1.0728726e-17 -1.4294158)
(365.88302 1.3586977e-17 -2.364543)
(376.67439 -1.5073572e-17 -1.6887519)
(373.72357 0 -3.3244209)
(376.33939 1.0609847e-17 -1.2106836)
(373.85959 4.6886054e-21 -4.041361)
(375.08225 -2.9479257e-17 -1.176586)
(373.39642 -6.7329036e-21 -4.3941778)
(373.63828 2.0511351e-17 -1.6548746)
(372.25279 0 -4.5656039)
(371.71103 2.8606577e-17 -2.5319346)
(370.28928 0 -4.8087125)
(369.01262 7.9491329e-17 -3.7034291)
(367.20032 1.3256834e-16 -5.3773142)
(365.10017 4.1277014e-17 -5.1467665)
(362.51699 -1.5607759e-19 -6.4725978)
(359.35656 1.9197163e-17 -6.9409995)
(355.57384 -7.9225056e-18 -8.1999956)
(350.98208 0 -9.1670624)
(345.5591 0 -10.477016)
(339.18052 -1.4685972e-16 -11.640728)
(331.91575 2.4529497e-16 -12.759087)
(323.90213 1.2808015e-17 -13.498849)
(315.49669 1.0860327e-17 -13.737504)
(307.12652 -1.6634728e-17 -13.316576)
(299.22464 0 -12.275475)
(292.10026 3.5052305e-16 -10.744976)
(285.92064 -1.1153908e-15 -8.9398084)
(280.71851 -2.7534611e-17 -7.0696205)
(276.43152 -6.6007269e-16 -5.3129493)
(272.95627 0 -3.7650343)
(270.19547 2.4990648e-17 -2.4797072)
(268.02197 1.7691937e-15 -1.4954091)
(266.3029 1.4056265e-17 -0.79214331)
(264.94968 2.1007732e-17 -0.32610582)
(263.88725 9.7653794e-16 -0.058084524)
(263.04285 7.2924572e-16 0.049645031)
(262.38505 -1.1009024e-15 0.045321023)
(261.87991 -7.5379048e-16 -0.044482215)
(261.43464 -1.7699198e-17 -0.21018687)
(261.00637 1.2827397e-17 -0.42354025)
(260.65954 0 -0.61939581)
(260.45069 8.6694309e-16 -0.74176978)
(260.37611 -1.282609e-15 -0.76940087)
(260.42544 1.4430901e-17 -0.59724451)
(260.76435 6.801068e-16 -0.2337261)
(261.17079 -1.0140502e-15 0.11313422)
(252.8582 -3.8708341e-17 -2.7063709)
(296.55807 2.7624282e-17 -2.1652265)
(324.79672 0 -2.888201)
(348.05819 2.1851907e-17 -3.0132099)
(366.59286 -4.1391859e-17 -4.1145772)
(376.61837 1.5312594e-17 -3.3392523)
(373.3409 0 -5.1224994)
(375.99054 0 -2.861064)
(373.45115 1.8034293e-17 -5.866135)
(374.673 -1.4971365e-17 -2.8611699)
(372.94433 1.2512342e-17 -6.2281259)
(373.16323 2.0895881e-17 -3.3909129)
(371.73846 -5.2258348e-17 -6.4093683)
(371.15655 -1.4436281e-17 -4.3358898)
(369.68289 -6.0586138e-17 -6.6767976)
(368.34025 -4.0324583e-17 -5.5836532)
(366.45602 -8.4173193e-17 -7.2954139)
(364.26246 1.3959014e-17 -7.10798)
(361.57493 0 -8.4647408)
(358.28656 6.8477939e-17 -8.9852854)
(354.35663 -1.2251091e-16 -10.274062)
(349.59537 -1.3707509e-17 -11.279184)
(343.98476 1.1127631e-17 -12.596003)
(337.41217 1.9013223e-17 -13.742883)
(329.97031 -2.6295159e-16 -14.786801)
(321.83569 1.3031293e-17 -15.389873)
(313.39988 -1.0356352e-17 -15.426185)
(305.10577 0 -14.762232)
(297.37403 -1.4063588e-17 -13.466389)
(290.48354 1.0984976e-17 -11.697251)
(284.56569 5.6323738e-16 -9.6850518)
(279.62259 0 -7.6453495)
(275.57037 6.856745e-16 -5.7547743)
(272.29609 -1.6544631e-17 -4.101471)
(269.70277 7.907906e-16 -2.7332996)
(267.66405 -2.3845276e-15 -1.6865042)
(266.04738 1.4254252e-17 -0.93652198)
(264.76876 -2.0999012e-17 -0.43474466)
(263.75846 3.1114896e-17 -0.13949461)
(262.95071 -2.2783592e-17 -0.010323598)
(262.31974 1.0671656e-15 0.0020151935)
(261.82945 2.4306481e-17 -0.076944864)
(261.38238 -1.7618798e-17 -0.2366312)
(260.94381 1.6628495e-15 -0.44290439)
(260.60739 -3.706402e-17 -0.63078173)
(260.43113 -8.4679178e-16 -0.74742803)
(260.3812 0 -0.76843529)
(260.44426 0 -0.58272353)
(260.88943 6.7864844e-16 -0.21395365)
(261.21159 4.8646685e-16 0.12884621)
(253.66916 -8.9943206e-17 -3.8686438)
(297.48739 1.3252911e-16 -3.5716593)
(325.83143 -4.5818588e-17 -4.4189747)
(349.16357 5.5624146e-18 -4.6412526)
(367.13576 -1.8691194e-17 -5.9078879)
(376.40038 -4.1914614e-20 -5.0178869)
(372.86979 3.9636473e-17 -6.9530667)
(375.53708 -4.3728057e-17 -4.5364818)
(372.94818 1.831191e-17 -7.7114393)
(374.17795 4.1664461e-20 -4.5659012)
(372.40105 0 -8.0805895)
(372.60382 2.1228532e-17 -5.150404)
(371.13221 7.085589e-17 -8.2729784)
(370.50643 -1.4698477e-17 -6.1650431)
(368.97862 8.6084018e-17 -8.5644728)
(367.56611 1.0214844e-17 -7.4877673)
(365.60604 0 -9.2317287)
(363.31409 5.7257261e-17 -9.0891508)
(360.51574 1.1995127e-17 -10.472503)
(357.09164 5.0251418e-17 -11.04408)
(353.00447 1.483964e-16 -12.357928)
(348.06278 2.2144555e-16 -13.395418)
(342.25336 -1.8437559e-16 -14.709787)
(335.47849 3.0657882e-16 -15.826197)
(327.85851 -2.5421726e-16 -16.777211)
(319.61253 -4.3314769e-16 -17.222793)
(311.16602 1.053307e-17 -17.038919)
(302.97318 -5.6160712e-16 -16.121425)
(295.43689 1.4265897e-17 -14.56925)
(288.80198 -7.3555927e-16 -12.567308)
(283.16272 1.7981354e-17 -10.358585)
(278.49084 -4.1965973e-17 -8.1618203)
(274.68182 2.1506235e-17 -6.1496076)
(271.6145 -1.0311483e-15 -4.4016393)
(269.19347 -1.6412949e-15 -2.959517)
(267.29344 -1.538617e-18 -1.8575963)
(265.78207 2.8491958e-17 -1.0668069)
(264.58003 -1.3725758e-15 -0.53370567)
(263.62339 9.9660401e-16 -0.21436351)
(262.85413 -2.2857102e-17 -0.065875672)
(262.25113 1.6649815e-17 -0.038481307)
(261.77493 -1.5276852e-15 -0.10797665)
(261.32521 -1.7566666e-17 -0.26261293)
(260.87531 -3.2341432e-15 -0.46096698)
(260.55654 2.4123686e-20 -0.64009256)
(260.41368 -8.6664087e-16 -0.75094787)
(260.39266 -1.9328173e-17 -0.76715764)
(260.48868 1.1292289e-20 -0.566568)
(261.00719 -6.4693041e-16 -0.19394866)
(261.2516 7.5524647e-18 0.14102836)
(254.39018 8.0011e-17 -5.0841452)
(298.32916 -6.9487314e-17 -4.9899452)
(326.78786 -1.3780973e-20 -5.9808729)
(350.23032 3.9538046e-17 -6.306455)
(367.51775 -9.4667048e-18 -7.7324562)
(376.04385 7.9171917e-18 -6.7127041)
(372.32523 1.3406652e-17 -8.8049812)
(375.01233 -2.2224107e-17 -6.2314714)
(372.37112 3.7241179e-17 -9.5800821)
(373.60421 -1.5439511e-17 -6.2953575)
(371.77912 0 -9.95694)
(371.96056 0 -6.936465)
(370.44199 -1.7896652e-17 -10.157515)
(369.76896 4.4959278e-17 -8.0199694)
(368.1848 -1.1256662e-16 -10.471549)
(366.69871 7.3057128e-17 -9.4156945)
(364.65864 8.7069606e-17 -11.186465)
(362.26291 5.8510236e-17 -11.090691)
(359.34642 0 -12.49666)
(355.7779 -1.4071888e-16 -13.118051)
(351.52289 -3.3673534e-17 -14.451955)
(346.38984 -2.2403963e-16 -15.515305)
(340.37092 1.9767284e-16 -16.816848)
(333.38695 -3.0938722e-16 -17.887426)
(325.59056 2.564246e-16 -18.725256)
(317.24629 9.5336128e-18 -18.991446)
(308.81162 3.6197122e-16 -18.569703)
(300.74645 1.1011089e-15 -17.389307)
(293.43041 2.8582571e-17 -15.580709)
(287.07101 1.4523849e-15 -13.353102)
(281.72482 5.7952606e-16 -10.95926)
(277.33386 0 -8.61841)
(273.77411 0 -6.4970662)
(270.91778 1.0532234e-15 -4.6652106)
(268.6723 1.1237602e-17 -3.1580322)
(266.91363 1.2229345e-15 -2.0083873)
(265.50946 0 -1.1827518)
(264.38523 1.3753579e-15 -0.62277604)
(263.48325 -1.0131758e-15 -0.28247236)
(262.75373 0 -0.11643558)
(262.17953 -1.0661949e-15 -0.076071168)
(261.71597 -2.4620482e-17 -0.13743952)
(261.26244 1.7508842e-17 -0.28789216)
(260.8055 3.2442591e-15 -0.47788639)
(260.51249 0 -0.6478646)
(260.39641 1.6789993e-15 -0.75235162)
(260.40605 9.5586093e-18 -0.76370332)
(260.57431 0 -0.55057953)
(261.1098 1.2915186e-15 -0.17406907)
(261.28771 -9.4650382e-16 0.15001258)
(255.05855 5.8022576e-18 -6.3315435)
(299.11111 4.1514386e-18 -6.4304053)
(327.68533 -6.7713234e-18 -7.5713946)
(351.27832 -4.597285e-17 -8.0059646)
(367.74671 2.8822174e-17 -9.5842667)
(375.56371 5.6268675e-17 -8.427303)
(371.71388 -5.4464411e-17 -10.680689)
(374.41624 1.129044e-17 -7.9484817)
(371.72291 -1.8875365e-17 -11.472155)
(372.9568 0 -8.0506722)
(371.08272 2.6302522e-17 -11.855861)
(371.24044 0 -8.7490515)
(369.67385 1.3844337e-19 -12.062885)
(368.9503 -3.0387782e-17 -9.9011628)
(367.30754 2.5289453e-17 -12.398144)
(365.7437 -1.0569031e-16 -11.367895)
(363.61895 -7.0554701e-17 -13.160141)
(361.11344 -1.1773623e-16 -13.113244)
(358.07078 1.2405803e-17 -14.538069)
(354.34864 1.5469204e-16 -15.207696)
(349.91489 0 -16.556283)
(344.57949 0 -17.638116)
(338.34096 -1.9105894e-16 -18.915148)
(331.14295 0 -19.922573)
(323.17516 0 -20.625152)
(314.74954 -4.1791947e-18 -20.689328)
(306.35214 3.2607694e-18 -20.012688)
(298.44227 -5.7479486e-16 -18.561598)
(291.37069 4.6662994e-16 -16.498189)
(285.30505 4.5034551e-18 -14.053402)
(280.26422 2.8872869e-18 -11.486697)
(276.16153 -2.8660231e-17 -9.0151681)
(272.85496 7.5020653e-16 -6.7973166)
(270.21182 -1.0969555e-15 -4.8922846)
(268.14374 2.4183179e-17 -3.3288436)
(266.52799 8.940161e-20 -2.1388284)
(265.23196 -1.4292079e-17 -1.2842924)
(264.18604 -1.3581794e-15 -0.70187055)
(263.33934 -9.9927189e-16 -0.34377338)
(262.65022 0 -0.16106124)
(262.1052 1.0646693e-15 -0.11070504)
(261.65232 1.5690161e-15 -0.16525507)
(261.19298 -1.7445375e-17 -0.3118059)
(260.74006 -1.6137609e-15 -0.4938959)
(260.47793 0 -0.65448985)
(260.38584 0 -0.75268283)
(260.41534 -1.1915348e-15 -0.75590689)
(260.67865 -1.3679551e-17 -0.53539943)
(261.19093 -1.2601775e-15 -0.15518246)
(261.31802 9.1945415e-16 0.1563158)
(255.67069 0 -7.6135351)
(299.8272 4.2350354e-18 -7.9064506)
(328.5161 6.9093264e-18 -9.2041651)
(352.30445 5.8462578e-18 -9.7502925)
(367.81795 8.7912283e-17 -11.46926)
(374.95998 1.6433913e-17 -10.169223)
(371.03705 -5.5278402e-17 -12.587953)
(373.75245 1.1502715e-17 -9.6927779)
(371.00672 0 -13.390921)
(372.2389 0 -9.8340987)
(370.31618 -2.6611344e-17 -13.778306)
(370.44729 0 -10.588335)
(368.83221 -3.7004458e-17 -13.988206)
(368.05474 -3.0977352e-17 -11.808482)
(366.35076 1.0343038e-16 -14.34421)
(364.70469 -1.0779871e-16 -13.344627)
(362.49008 0 -15.153211)
(359.86816 1.203439e-16 -15.157313)
(356.69061 0 -16.597377)
(352.80508 -1.6652886e-16 -17.313157)
(348.18154 -1.2230437e-16 -18.670505)
(342.63289 2.1910042e-16 -19.762392)
(336.16553 1.9272715e-16 -21.001782)
(328.75082 0 -21.926727)
(320.62041 2.6821793e-16 -22.470398)
(312.1343 4.3810247e-16 -22.309639)
(303.80246 -3.5906293e-16 -21.362253)
(296.07644 -1.8518699e-17 -19.634626)
(289.27283 -4.5525598e-16 -17.319901)
(283.51754 -7.4839048e-16 -14.667783)
(278.79223 -5.71164e-16 -11.941257)
(274.98299 -1.4297085e-17 -9.3527754)
(271.9315 -2.1113294e-15 -7.0510334)
(269.50215 1.0680539e-15 -5.0833598)
(267.61201 7.9585289e-16 -3.4722533)
(266.1397 1.9239769e-17 -2.249106)
(264.95186 0 -1.3715367)
(263.9841 -2.2232541e-17 -0.77101497)
(263.19298 3.0152056e-15 -0.39841692)
(262.5447 1.4618426e-15 -0.20577168)
(262.02838 0 -0.14236918)
(261.58406 0 -0.19148156)
(261.11608 -2.2096385e-15 -0.33354843)
(260.68131 -1.2527901e-17 -0.50876165)
(260.45224 -1.8061236e-17 -0.65985406)
(260.38089 -1.6498692e-15 -0.75281839)
(260.42056 1.1784183e-15 -0.7429451)
(260.79734 2.697037e-17 -0.51995321)
(261.25733 1.2384137e-15 -0.1381779)
(261.34052 0 0.16054451)
(256.22366 0 -8.9213835)
(300.47759 -4.2935892e-18 -9.4041035)
(329.27568 -7.0059026e-18 -10.865788)
(353.30401 -1.0082672e-16 -11.52687)
(367.73041 8.9155593e-17 -13.375953)
(374.24407 -3.3116711e-17 -11.932418)
(370.29519 -7.0274923e-17 -14.525869)
(373.02298 6.9741781e-17 -11.463195)
(370.22555 -1.9394196e-17 -15.333291)
(371.45444 3.2427837e-17 -11.641834)
(369.48376 1.0884563e-19 -15.721397)
(369.58541 -6.76949e-17 -12.453241)
(367.92074 -3.773727e-17 -15.933115)
(367.08533 6.269427e-17 -13.742254)
(365.31706 -1.0485737e-16 -16.31011)
(363.5838 8.7310868e-17 -15.346301)
(361.27351 -7.3242947e-17 -17.166395)
(358.52786 -2.4393264e-16 -17.223535)
(355.20603 0 -18.675183)
(351.147 2.1446331e-17 -19.434301)
(346.32247 -7.3841923e-19 -20.793821)
(340.54985 2.4884048e-18 -21.886128)
(333.84553 1.8587913e-16 -23.073018)
(326.21427 0 -23.894041)
(317.93414 -2.7020432e-16 -24.253785)
(309.41248 0 -23.845378)
(301.17702 0 -22.61304)
(293.66401 5.7882924e-16 -20.605283)
(287.151 -3.1682797e-19 -18.044755)
(281.72094 1.1750404e-17 -15.196525)
(277.31926 -1.8770648e-17 -12.323931)
(273.80658 -1.4741913e-17 -9.632441)
(271.01027 2.9101588e-15 -7.2593199)