/*--------------------------------*- C++ -*----------------------------------*\
  =========                 |
  \\      /  F ield         | OpenFOAM: The Open Source CFD Toolbox
   \\    /   O peration     | Website:  https://openfoam.org
    \\  /    A nd           | Version:  8
     \\/     M anipulation  |
\*---------------------------------------------------------------------------*/
FoamFile
{
    version     2.0;
    format      ascii;
    class       volVectorField;
    location    "0.250004";
    object      wallShearStress;
}
// * * * * * * * * * * * * * * * * * * * * * * * * * * * * * * * * * * * * * //

dimensions      [1 -1 -2 0 0 0 0];

internalField   uniform (0 0 0);

boundaryField
{
    aerofoil
    {
        type            calculated;
        value           nonuniform List<vector> 
300
(
(-141.03833 1.2246414e-22 -7.1237361)
(-147.09577 -1.8968136e-16 -6.8512793)
(-150.85804 1.9456675e-16 -6.4330883)
(-153.91121 9.8120075e-17 -5.9377347)
(-156.40266 6.4482516e-20 -5.399034)
(-158.55905 1.6125371e-18 -4.8200336)
(-160.40184 1.0011989e-19 -4.2111357)
(-162.1297 -1.7733431e-18 -3.4584454)
(-163.80534 -1.7251872e-18 -2.7148015)
(-165.46259 -5.289665e-18 -1.935692)
(-166.98863 -1.4222637e-17 -1.1264554)
(-168.43776 2.5672443e-17 -0.30461041)
(-169.82598 6.0178286e-17 0.4590444)
(-171.14646 -5.364818e-17 1.2750846)
(-172.41728 -3.9173849e-18 2.1227689)
(-173.65176 -1.9623786e-19 3.0025039)
(-174.84003 -3.8545674e-19 3.9101747)
(-175.99144 1.2952683e-16 4.8469089)
(-177.09387 -1.3615681e-16 5.8110487)
(-178.15944 8.7013124e-18 6.8063192)
(-179.18639 1.37642e-16 7.8332975)
(-180.16246 4.454561e-18 8.8913571)
(-181.08979 -1.5236503e-16 9.9854548)
(-181.95108 -4.8148249e-35 11.115338)
(-182.7727 4.8057018e-18 12.286054)
(-183.53804 -3.1817684e-16 13.492366)
(-184.26992 -1.9259299e-34 14.739291)
(-184.98924 -1.705128e-20 16.034035)
(-185.69845 -3.3224197e-16 17.374381)
(-186.4252 -7.8854966e-22 18.769916)
(-187.16938 1.0796852e-17 20.223919)
(-187.93588 -3.5209642e-16 21.74067)
(-188.73669 -1.1180769e-17 23.323562)
(-189.5843 -3.6567703e-16 24.979153)
(-190.44903 3.7253276e-16 26.71633)
(-191.32995 8.0204251e-19 28.550288)
(-192.21846 -3.8692138e-16 30.492682)
(-193.11064 3.9411278e-16 32.548739)
(-193.98618 -1.7330852e-18 34.726597)
(-194.78711 -8.1539069e-16 37.003124)
(-195.55391 4.1388643e-16 39.409482)
(-196.2761 6.3069538e-20 41.951758)
(-196.98791 4.4087114e-16 44.644613)
(-197.6702 -4.530841e-16 47.473096)
(-198.29721 -1.3954671e-17 50.434369)
(-198.80913 -4.384636e-16 53.537588)
(-199.12303 4.7058335e-16 56.779985)
(-199.18548 9.232658e-16 60.175735)
(-198.92597 -1.9019526e-17 63.722435)
(-198.22448 -4.7166657e-16 67.388941)
(-196.95462 1.5518559e-17 71.206968)
(-195.12298 1.0041137e-15 75.216046)
(-192.66639 1.0101474e-15 79.415045)
(-189.52516 -5.0511584e-16 83.815106)
(-185.66673 -7.3817555e-18 88.446936)
(-181.05845 2.1460958e-19 93.333405)
(-175.70077 8.6441153e-34 98.518737)
(-169.67188 -9.9508832e-18 104.0138)
(-163.13588 1.4757102e-17 109.72285)
(-156.71985 -6.098275e-16 115.4904)
(-150.76567 3.3665993e-17 121.14824)
(-144.79422 -5.7597968e-16 126.62248)
(-138.20988 -1.4961097e-17 131.59453)
(-130.42646 5.7841739e-19 135.52638)
(-121.19933 6.3238474e-16 138.04006)
(-110.43734 9.2444637e-33 138.95032)
(-98.182553 1.0460795e-17 137.62335)
(-84.287014 -1.0252363e-17 133.38175)
(-69.265183 3.5102145e-16 125.72617)
(-53.67623 -3.5731809e-16 113.89934)
(-38.475244 -3.482911e-16 97.750956)
(-24.581671 9.1507188e-18 77.737858)
(-13.401065 1.6409198e-16 54.994681)
(-6.6709944 1.6011618e-16 31.223323)
(-2.9384765 -7.1227686e-17 13.606836)
(-1.9297177 4.1313457e-16 -0.6394435)
(-4.8749832 8.7227661e-21 -0.96676079)
(-6.2438439 -1.5332437e-15 -1.2417827)
(-8.1573727 0 -1.6077037)
(-9.9869552 -1.7759581e-15 -1.9513344)
(-11.92643 4.6888242e-16 -2.3096604)
(-13.870186 4.9063724e-16 -2.6623551)
(-15.834808 2.3624528e-26 -3.0129431)
(-17.784742 -5.278095e-16 -3.3543456)
(-19.706753 -1.0871432e-15 -3.6852424)
(-21.593527 -1.11538e-15 -4.003857)
(-23.444905 -7.3934664e-20 -4.3103516)
(-25.262924 -5.8209474e-16 -4.6056065)
(-27.047773 -1.6625145e-19 -4.890254)
(-28.797406 9.3728691e-26 -5.1633649)
(-30.510248 6.1148671e-16 -5.4256008)
(-32.186313 1.1903824e-19 -5.6767926)
(-33.819204 6.2751211e-16 -5.9159793)
(-35.407419 1.2689124e-15 -6.1436671)
(-36.956937 -6.4100033e-16 -6.3605688)
(-38.476249 0 -6.5685562)
(-39.97534 1.2950535e-25 -6.7686415)
(-41.454692 -2.700745e-25 -6.9620307)
(-42.914149 6.6295741e-16 -7.1477676)
(-44.352159 6.6779228e-16 -7.3265426)
(-45.772084 -6.7210888e-16 -7.497968)
(-47.171689 -6.7632684e-16 -7.6628215)
(-48.552832 -6.8033228e-16 -7.8201208)
(-49.91134 6.8409014e-16 -7.9704167)
(-51.251022 -3.2704917e-22 -8.1134105)
(-52.573605 -1.9096484e-19 -8.2497833)
(-53.893329 -8.2402795e-23 -8.3823816)
(-55.218138 4.1646332e-23 -8.5102435)
(-56.536852 7.002887e-16 -8.6329296)
(-57.848842 7.0313558e-16 -8.7501137)
(-59.157735 -1.4111657e-15 -8.8623132)
(-60.466075 -6.7389047e-22 -8.9691848)
(-61.768024 6.7890397e-22 -9.0701554)
(-63.058549 1.9866761e-25 -9.1640859)
(-64.337987 1.7192717e-19 -9.25177)
(-65.61818 1.1407947e-19 -9.3335554)
(-66.9076 -7.1909266e-16 -9.4103012)
(-68.208702 -8.99381e-20 -9.482351)
(-69.515662 -7.22608e-16 -9.5493763)
(-70.827925 -7.2406531e-16 -9.6097017)
(-72.139836 7.2572051e-16 -9.6633203)
(-73.447897 -9.8696595e-20 -9.7088683)
(-74.745159 -1.2950721e-19 -9.7452011)
(-76.030991 -1.2881889e-19 -9.7722104)
(-77.310962 -1.0934535e-19 -9.7909236)
(-78.594279 -7.3184593e-16 -9.8008497)
(-79.884896 -3.0760488e-20 -9.8019916)
(-81.181083 -1.0868709e-19 -9.7953486)
(-82.478146 1.4794502e-19 -9.7791864)
(-83.769929 -4.9892369e-21 -9.7519073)
(-85.062167 1.0206892e-19 -9.7143038)
(-86.361863 7.358052e-16 -9.6665397)
(-87.672473 2.5931577e-25 -9.6085763)
(-89.006589 -7.359453e-16 -9.5388447)
(-90.356252 -9.4076728e-21 -9.4576809)
(-91.643523 -1.1294309e-19 -9.3567654)
(-92.737984 -1.1918766e-20 -9.2257869)
(-93.491276 -3.3617978e-20 -9.0513498)
(-93.765567 5.7021693e-20 -8.8237411)
(-93.516966 -3.6620186e-16 -8.545583)
(-92.886657 -1.0429501e-19 -8.2293778)
(-92.256545 -5.2085632e-20 -7.910054)
(-92.282639 3.5936617e-16 -7.6306446)
(-93.770744 3.5628718e-16 -7.427827)
(-97.419829 3.5295499e-16 -7.3434384)
(-103.47438 -3.4982726e-16 -7.3583422)
(-111.3971 3.6859658e-20 -7.4450441)
(-120.27264 3.5930386e-20 -7.5177152)
(-128.94288 -9.3522245e-21 -7.525444)
(-135.23243 1.7299392e-16 -7.3158639)
(-138.3712 -2.1082072e-16 -8.0569168)
(-138.21085 -8.3824334e-23 -8.5717682)
(-139.35731 4.4212521e-16 -9.2062925)
(-140.28179 1.8055593e-35 -9.8429151)
(-141.20319 2.3185836e-16 -10.498872)
(-142.05625 -2.3679742e-16 -11.166842)
(-142.89619 5.6341975e-20 -11.851864)
(-143.71191 2.4614496e-16 -12.55168)
(-144.49929 -4.8148249e-35 -13.268562)
(-145.28483 5.1126271e-16 -14.004495)
(-146.05151 2.2479899e-18 -14.755576)
(-146.79752 -1.2299351e-19 -15.52349)
(-147.51216 5.4556204e-16 -16.308074)
(-148.19984 2.0827723e-19 -17.109876)
(-148.86615 -4.5680125e-18 -17.929478)
(-149.51521 5.8390277e-16 -18.770459)
(-150.14043 -5.9556273e-16 -19.628809)
(-150.74939 -9.9507043e-21 -20.509359)
(-151.32667 4.9233259e-18 -21.406711)
(-151.87863 -6.2673693e-16 -22.324073)
(-152.40013 -1.3572482e-19 -23.26235)
(-152.89603 -1.8111768e-19 -24.22205)
(-153.36481 -5.5403499e-18 -25.204008)
(-153.78546 -1.8908669e-20 -26.202751)
(-154.17705 5.5560951e-18 -27.229128)
(-154.51201 1.348925e-21 -28.274872)
(-154.78829 -7.1596938e-16 -29.339468)
(-155.00714 -3.0451593e-21 -30.431354)
(-155.16021 -3.7157986e-16 -31.545307)
(-155.27071 3.7865886e-16 -32.692487)
(-155.34455 8.4259435e-35 -33.872666)
(-155.40432 3.9342981e-16 -35.092685)
(-155.46018 -4.0079305e-16 -36.356743)
(-155.52398 -1.2802376e-17 -37.673718)
(-155.5888 -7.3183055e-20 -39.048336)
(-155.68269 1.2267508e-17 -40.488518)
(-155.78032 4.3264802e-16 -41.994596)
(-155.87083 -7.7037198e-34 -43.57262)
(-155.93212 4.5607043e-19 -45.222093)
(-155.92835 -1.491522e-17 -46.936534)
(-155.82569 1.5226072e-17 -48.719449)
(-155.62539 -1.4932536e-17 -50.58075)
(-155.32986 1.7719853e-17 -52.533317)
(-154.93998 2.9250891e-20 -54.589153)
(-154.44693 -5.0359767e-16 -56.750309)
(-153.90414 0 -59.027093)
(-153.24939 5.2624064e-16 -61.399517)
(-152.38439 -1.6726074e-17 -63.863739)
(-151.24215 2.1022623e-17 -66.409818)
(-149.74474 -1.7340126e-17 -69.02366)
(-147.83748 1.7460087e-17 -71.707297)
(-145.47293 -5.6950274e-16 -74.497454)
(-142.61636 1.3431516e-17 -77.408927)
(-139.25989 5.596347e-16 -80.494745)
(-135.4232 2.572632e-17 -83.799674)
(-131.08643 6.1259596e-16 -87.236234)
(-126.42449 6.0517849e-16 -90.734075)
(-121.89443 2.8592459e-17 -94.253249)
(-117.696 -1.9896029e-17 -97.642453)
(-113.45888 3.0851522e-18 -100.79894)
(-108.7073 6.9770503e-16 -103.46919)
(-103.09125 -7.1651713e-16 -105.48467)
(-96.472253 2.2026825e-17 -106.50713)
(-88.783888 -2.1984934e-17 -106.27664)
(-79.861734 1.1434695e-17 -104.4446)
(-69.821161 -1.4435254e-17 -100.70796)
(-58.865635 -3.0155798e-19 -94.656008)
(-47.383282 2.2670724e-17 -85.922547)
(-35.906406 -3.5917216e-16 -74.239746)
(-24.916977 -2.1467543e-17 -59.589865)
(-14.397822 1.0523701e-17 -42.271812)
(-7.2280521 9.3341698e-16 -23.410857)
(-3.1728162 1.2677478e-16 -9.3214315)
(-1.1098963 4.1226948e-17 -1.1457686)
(-1.3110435 -1.6248907e-18 3.0765211)
(-63.683168 -1.029384e-15 8.3192794)
(-92.833231 1.4693679e-39 8.066251)
(-96.273718 -4.0333625e-19 8.3040168)
(-99.598232 -9.5935851e-16 8.427156)
(-101.94107 -9.5730932e-16 8.4505517)
(-103.93429 -9.5435708e-16 8.4441632)
(-105.53461 9.5214914e-16 8.4041764)
(-106.89191 -1.8048993e-21 8.3438951)
(-108.03083 1.8091408e-21 8.265222)
(-109.00165 -5.0842302e-19 8.1750618)
(-109.83452 -4.693326e-16 8.075023)
(-110.55402 4.6752441e-16 7.9665815)
(-111.17647 -9.3278872e-16 7.8524488)
(-111.72058 -6.9275544e-19 7.7337582)
(-112.19564 4.6310355e-16 7.6091353)
(-112.60796 4.6146609e-16 7.4815764)
(-112.96995 1.7769827e-19 7.3511619)
(-113.28829 -6.5904816e-24 7.2174025)
(-113.56602 1.3606278e-21 7.0822688)
(-113.81173 -4.5522005e-16 6.9448752)
(-114.02628 4.5346692e-16 6.8065858)
(-114.216 -1.7268523e-21 6.6659948)
(-114.37951 -3.496633e-25 6.5250313)
(-114.52543 -4.4913723e-16 6.3817089)
(-114.65208 1.7091494e-21 6.2381223)
(-114.76635 -4.4579192e-16 6.0924799)
(-114.8662 -4.4481389e-16 5.9469105)
(-114.95955 1.6866935e-21 5.7989873)
(-115.04596 -1.6863387e-21 5.6507204)
(-115.13455 5.0312148e-19 5.5004946)
(-115.22073 -2.1056438e-19 5.3489512)
(-115.30701 -4.7955575e-21 5.198078)
(-115.39831 -4.961834e-21 5.0438505)
(-115.48662 -4.3373208e-16 4.8878609)
(-115.57796 -4.3262304e-16 4.7299738)
(-115.6731 4.3194943e-16 4.5706692)
(-115.77523 -4.300919e-16 4.4087433)
(-115.88139 -2.1119873e-25 4.2444911)
(-115.99228 -4.2738002e-16 4.0768468)
(-116.10704 4.8636316e-19 3.9070291)
(-116.23116 -4.2461548e-16 3.7334899)
(-116.36069 -8.4697804e-16 3.5565623)
(-116.49829 -2.3790674e-19 3.3756243)
(-116.64456 -2.1043082e-16 3.1916302)
(-116.8071 3.6498837e-19 3.0024525)
(-116.98745 -1.2622192e-19 2.8095021)
(-117.19353 -2.3489128e-19 2.6115003)
(-117.4181 2.0785182e-16 2.4081491)
(-117.65802 -1.3303715e-19 2.1991875)
(-117.9164 -2.3819612e-19 1.9854862)
(-118.20286 -2.0607576e-16 1.764656)
(-118.51111 1.0136684e-19 1.5362689)
(-118.84119 -1.002622e-19 1.3017223)
(-119.19404 1.3207123e-19 1.0594266)
(-119.56534 2.5072437e-19 0.80798388)
(-119.95129 1.0169532e-16 0.54832463)
(-120.3597 -2.3841202e-19 0.27958148)
(-120.79016 -1.0118802e-16 0.0033710511)
(-121.2433 2.3957845e-19 -0.27676543)
(-121.71414 -2.4605112e-19 -0.56585784)
(-122.20483 1.0023969e-16 -0.88131006)
(-122.71117 5.0141532e-17 -1.2347349)
(-123.24978 3.5449222e-20 -1.5883739)
(-123.81725 -6.1547753e-18 -1.9637655)
(-124.4408 8.8679499e-20 -2.3626594)
(-125.13539 -1.1638343e-19 -2.7514382)
(-125.9489 4.977985e-17 -3.1520699)
(-126.88866 9.9395943e-17 -3.5793316)
(-127.96575 1.2149766e-20 -4.0329457)
(-129.15219 9.9100974e-17 -4.5130123)
(-130.41959 1.9784062e-16 -5.0209867)
(-131.71662 4.597632e-20 -5.5550842)
(-133.00918 -1.9725839e-16 -6.1169687)
(-134.30252 -1.9708962e-16 -6.7123253)
(-136.90373 -2.8299203e-20 -7.4070817)
)
;
    }
    inlet
    {
        type            calculated;
        value           uniform (0 0 0);
    }
    outlet
    {
        type            calculated;
        value           uniform (0 0 0);
    }
    back
    {
        type            empty;
    }
    front
    {
        type            empty;
    }
}


// ************************************************************************* //
