/*--------------------------------*- C++ -*----------------------------------*\
  =========                 |
  \\      /  F ield         | OpenFOAM: The Open Source CFD Toolbox
   \\    /   O peration     | Website:  https://openfoam.org
    \\  /    A nd           | Version:  8
     \\/     M anipulation  |
\*---------------------------------------------------------------------------*/
FoamFile
{
    version     2.0;
    format      ascii;
    class       volScalarField;
    location    "0.250004";
    object      yPlus;
}
// * * * * * * * * * * * * * * * * * * * * * * * * * * * * * * * * * * * * * //

dimensions      [0 0 0 0 0 0 0];

internalField   uniform 0;

boundaryField
{
    aerofoil
    {
        type            calculated;
        value           nonuniform List<scalar> 
300
(
123.63651
124.40833
124.71582
124.88584
124.90801
124.93349
124.85348
124.80045
124.7503
124.76776
124.76471
124.78103
124.81263
124.85931
124.91317
124.98831
125.07622
125.18264
125.29621
125.42363
125.56544
125.71312
125.87236
126.0261
126.19526
126.36764
126.5496
126.75736
126.9836
127.24349
127.53633
127.86598
128.23439
128.64413
129.08768
129.57027
130.08699
130.63783
131.21556
131.80279
132.41365
133.04372
133.71122
134.42317
135.15144
135.89783
136.62533
137.32639
137.99067
138.57654
139.05085
139.44908
139.76202
139.9885
140.15268
140.27725
140.39836
140.62083
140.9906
141.78346
143.11452
144.89819
146.94774
148.92014
150.60825
151.93232
152.65603
152.21235
150.19277
145.64753
137.58941
124.92356
106.55566
80.93403
53.426886
16.568229
28.529558
32.245405
36.796418
40.63054
44.309372
47.68309
50.838418
53.765235
56.476142
58.995067
61.344113
63.547906
65.620006
67.573204
69.415057
71.157101
72.799213
74.347812
75.814625
77.213221
78.557197
79.850176
81.095211
82.29264
83.448416
84.561951
85.637795
86.672949
87.673023
88.639744
89.584237
90.515577
91.424544
92.311614
93.17925
94.03061
94.862098
95.671066
96.456569
97.22798
97.990173
98.746127
99.491122
100.22555
100.94456
101.64721
102.32886
102.98959
103.63201
104.26197
104.88239
105.49165
106.08854
106.66777
107.23187
107.78511
108.3261
108.85963
109.38649
109.87124
110.25414
110.46026
110.42179
110.09392
109.53056
108.88067
108.44295
108.63558
109.70153
111.76266
114.37893
117.30527
120.00313
122.20034
131.97074
131.24026
130.80111
130.28743
129.84133
129.39395
128.98661
128.61439
128.26722
127.95967
127.67835
127.43001
127.20257
127.00526
126.83016
126.68525
126.55929
126.46247
126.38342
126.32752
126.28958
126.26977
126.27242
126.27769
126.30257
126.33421
126.36079
126.39667
126.42702
126.46923
126.51829
126.58993
126.68426
126.80793
126.96176
127.15722
127.38111
127.63067
127.9021
128.18255
128.45427
128.72073
128.98129
129.25476
129.52074
129.82528
130.13125
130.41354
130.6529
130.81507
130.88759
130.88385
130.80437
130.67045
130.53854
130.41774
130.36373
130.61348
131.20995
132.0559
132.90631
133.6128
134.00362
133.97204
133.28165
131.7061
128.91343
124.42169
117.52037
107.18303
91.750952
69.499659
44.61735
16.813236
25.467517
115.34113
121.24098
123.01923
124.76678
125.84833
126.76455
127.44195
127.99236
128.42356
128.76602
129.03553
129.24879
129.41228
129.53655
129.62822
129.68947
129.72582
129.74265
129.73909
129.72178
129.68871
129.64642
129.59001
129.52795
129.45491
129.37814
129.29332
129.20773
129.11693
129.02834
128.93952
128.84894
128.76309
128.67413
128.58753
128.50149
128.41916
128.33797
128.26009
128.18193
128.1091
128.03673
127.96873
127.90308
127.84585
127.79391
127.75477
127.72423
127.70148
127.6837
127.67952
127.68473
127.69909
127.72229
127.75504
127.79194
127.83913
127.89331
127.95888
128.03161
128.11583
128.20162
128.30296
128.4098
128.54061
128.68117
128.87412
129.11198
129.41154
129.75242
130.13675
130.54166
130.95359
131.37942
131.91841
)
;
    }
    inlet
    {
        type            calculated;
        value           uniform 0;
    }
    outlet
    {
        type            calculated;
        value           uniform 0;
    }
    back
    {
        type            empty;
    }
    front
    {
        type            empty;
    }
}


// ************************************************************************* //
